Siesta Version  : 4.1.5
Architecture    : unknown
Compiler version: GNU Fortran (conda-forge gcc 12.3.0-5) 12.3.0
Compiler flags  : x86_64-conda-linux-gnu-gfortran -march=nocona -mtune=haswell -ftree-vectorizee -fPIC -fstack-protector-strong -fno-plt -O2 -ffunction-sections -pipe  -fallow-argument-mismatch
PP flags        : -DFC_HAVE_ABORT -DCDF -DNCDF -DNCDF_4
Libraries       : libncdf.a libfdict.a -llapack -lblas -lnetcdff -lnetcdf -lhdf5_hl -lhdf5 -lz
SERIAL version
NetCDF support
NetCDF-4 support

* Running in serial mode
>> Start of run:  20-MAR-2024  18:14:50

                           ***********************       
                           *  WELCOME TO SIESTA  *       
                           ***********************       

reinit: Reading from xoc.fdf

reinit: -----------------------------------------------------------------------
reinit: System Name: H2 + O2 -> H2O2 reaction
reinit: -----------------------------------------------------------------------
reinit: System Label: xoc
reinit: -----------------------------------------------------------------------

initatom: Reading input for the pseudopotentials and atomic orbitals ----------
Species number:   1 Atomic number:    8 Label: O
Species number:   2 Atomic number:    1 Label: H

Ground state valence configuration:   2s02  2p04
Reading pseudopotential information in formatted form from O.psf

Pseudopotential generated from a relativistic atomic calculation

Valence configuration for pseudopotential generation:
2s( 2.00) rc: 1.14
2p( 4.00) rc: 1.14
3d( 0.00) rc: 1.14
4f( 0.00) rc: 1.14
Ground state valence configuration:   1s01
Reading pseudopotential information in unformatted form from H.vps

Valence configuration for pseudopotential generation:
1s( 1.00) rc: 1.25
2p( 0.00) rc: 1.25
3d( 0.00) rc: 1.25
4f( 0.00) rc: 1.25
For O, standard SIESTA heuristics set lmxkb to 3
 (one more than the basis l, including polarization orbitals).
Use PS.lmax or PS.KBprojectors blocks to override.
For H, standard SIESTA heuristics set lmxkb to 2
 (one more than the basis l, including polarization orbitals).
Use PS.lmax or PS.KBprojectors blocks to override.

<basis_specs>
===============================================================================
O                    Z=   8    Mass=  16.000        Charge=-0.18518    
Lmxo=2 Lmxkb= 3    BasisType=split      Semic=F
L=0  Nsemic=0  Cnfigmx=2
          i=1  nzeta=2  polorb=0  (2s)
            splnorm:   0.15000    
               vcte:    87.074    
               rinn:    4.7393    
               qcoe:    0.0000    
               qyuk:    0.0000    
               qwid:   0.10000E-01
                rcs:    7.3294      4.6037    
            lambdas:    1.0000      1.0000    
L=1  Nsemic=0  Cnfigmx=2
          i=1  nzeta=2  polorb=0  (2p)
            splnorm:   0.15000    
               vcte:    68.296    
               rinn:    4.9704    
               qcoe:    0.0000    
               qyuk:    0.0000    
               qwid:   0.10000E-01
                rcs:    6.6025      3.0467    
            lambdas:    1.0000      1.0000    
L=2  Nsemic=0  Cnfigmx=3
          i=1  nzeta=1  polorb=0  (3d)
            splnorm:   0.15000    
               vcte:    91.071    
               rinn:    3.9512    
               qcoe:    0.0000    
               qyuk:    0.0000    
               qwid:   0.10000E-01
                rcs:    6.8934    
            lambdas:    1.0000    
-------------------------------------------------------------------------------
L=0  Nkbl=1  erefs: 0.17977+309
L=1  Nkbl=1  erefs: 0.17977+309
L=2  Nkbl=1  erefs: 0.17977+309
L=3  Nkbl=1  erefs: 0.17977+309
===============================================================================
</basis_specs>

atom: Called for O                     (Z =   8)

read_vps: Pseudopotential generation method:
read_vps: ATM3      Troullier-Martins                       
Valence charge for ps generation:    6.00000

read_vps: Pseudopotential includes a core correction:
read_vps: Pseudo-core for xc-correction

xc_check: Exchange-correlation functional:
xc_check: GGA Perdew, Burke & Ernzerhof 1996
V l=0 = -2*Zval/r beyond r=  1.1278
V l=1 = -2*Zval/r beyond r=  1.1278
V l=2 = -2*Zval/r beyond r=  1.1278
V l=3 = -2*Zval/r beyond r=  1.1278
All V_l potentials equal beyond r=  1.1278
This should be close to max(r_c) in ps generation
All pots = -2*Zval/r beyond r=  1.1278

VLOCAL1: 99.0% of the norm of Vloc inside     34.126 Ry
VLOCAL1: 99.9% of the norm of Vloc inside     77.774 Ry
atom: Maximum radius for 4*pi*r*r*local-pseudopot. charge    1.37759
atom: Maximum radius for r*vlocal+2*Zval:    1.18566
GHOST: No ghost state for L =  0
GHOST: No ghost state for L =  1
GHOST: No ghost state for L =  2
GHOST: No ghost state for L =  3

KBgen: Kleinman-Bylander projectors: 
   l= 0   rc=  1.360471   el= -1.759790   Ekb=  9.210761   kbcos=  0.328866
   l= 1   rc=  1.360471   el= -0.663797   Ekb= -7.921990   kbcos= -0.392961
   l= 2   rc=  1.791199   el=  0.002031   Ekb= -1.950550   kbcos= -0.003498
   l= 3   rc=  2.107308   el=  0.003153   Ekb= -0.856060   kbcos= -0.000334

KBgen: Total number of Kleinman-Bylander projectors:   16
atom: -------------------------------------------------------------------------

atom: SANKEY-TYPE ORBITALS:
atom: Selected multiple-zeta basis: split     

atom: basis set generated (by rescaling the valence charge)
atom: for an anion of charge  -0.1852

SPLIT: Orbitals with angular momentum L= 0

SPLIT: Basis orbitals for state 2s

   izeta = 1
                 lambda =    1.000000
                     rc =    7.356000
                 energy =   -1.758588
                kinetic =    1.491851
    potential(screened) =   -3.250439
       potential(ionic) =  -11.062471

   izeta = 2
                 rmatch =    4.690281
              splitnorm =    0.003309
                 energy =   -1.757602
* WARNING: effective split_norm is quite small. Orbitals will be very similar.
                kinetic =    1.574378
    potential(screened) =   -3.331980
       potential(ionic) =  -11.238433

SPLIT: Orbitals with angular momentum L= 1

SPLIT: Basis orbitals for state 2p

   izeta = 1
                 lambda =    1.000000
                     rc =    6.655955
                 energy =   -0.659921
                kinetic =    4.410674
    potential(screened) =   -5.070596
       potential(ionic) =  -12.498772

   izeta = 2
                 rmatch =    3.066256
              splitnorm =    0.127283
                 energy =   -0.537509
                kinetic =    6.271972
    potential(screened) =   -6.809481
       potential(ionic) =  -15.130217

SPLIT: Orbitals with angular momentum L= 2

SPLIT: Basis orbitals for state 3d

   izeta = 1
                 lambda =    1.000000
                     rc =    6.997229
                 energy =    0.764795
                kinetic =    1.136799
    potential(screened) =   -0.372004
       potential(ionic) =   -3.984199
atom: Total number of Sankey-type orbitals: 13

atm_pop: Valence configuration (for local Pseudopot. screening):
 2s( 2.00)                                                            
 2p( 4.00)                                                            
 3d( 0.00)                                                            
Vna: chval, zval:    6.00000   6.00000

Vna:  Cut-off radius for the neutral-atom potential:   7.356000
comcore: Pseudo-core radius Rcore=  1.377587

atom: _________________________________________________________________________

<basis_specs>
===============================================================================
H                    Z=   1    Mass=  1.0100        Charge= 0.22000    
Lmxo=1 Lmxkb= 2    BasisType=split      Semic=F
L=0  Nsemic=0  Cnfigmx=1
          i=1  nzeta=2  polorb=0  (1s)
            splnorm:   0.15000    
               vcte:    2.0700    
               rinn:    0.0000    
               qcoe:    0.0000    
               qyuk:    0.0000    
               qwid:   0.10000E-01
                rcs:    4.9710      1.7710    
            lambdas:    1.0000      1.0000    
L=1  Nsemic=0  Cnfigmx=2
          i=1  nzeta=1  polorb=0  (2p)
            splnorm:   0.15000    
               vcte:   0.89000    
               rinn:   0.10000E-01
               qcoe:    0.0000    
               qyuk:    0.0000    
               qwid:   0.10000E-01
                rcs:    4.9880    
            lambdas:    1.0000    
-------------------------------------------------------------------------------
L=0  Nkbl=1  erefs: 0.17977+309
L=1  Nkbl=1  erefs: 0.17977+309
L=2  Nkbl=1  erefs: 0.17977+309
===============================================================================
</basis_specs>

atom: Called for H                     (Z =   1)

read_vps: Pseudopotential generation method:
read_vps: ATM3      Troullier-Martins                       
Valence charge for ps generation:    1.00000

xc_check: Exchange-correlation functional:
xc_check: GGA Perdew, Burke & Ernzerhof 1996
V l=0 = -2*Zval/r beyond r=  1.2343
V l=1 = -2*Zval/r beyond r=  1.2189
V l=2 = -2*Zval/r beyond r=  1.2189
All V_l potentials equal beyond r=  1.2343
This should be close to max(r_c) in ps generation
All pots = -2*Zval/r beyond r=  1.2343

VLOCAL1: 99.0% of the norm of Vloc inside     28.493 Ry
VLOCAL1: 99.9% of the norm of Vloc inside     64.935 Ry
atom: Maximum radius for 4*pi*r*r*local-pseudopot. charge    1.45251
atom: Maximum radius for r*vlocal+2*Zval:    1.21892
GHOST: No ghost state for L =  0
GHOST: No ghost state for L =  1
GHOST: No ghost state for L =  2

KBgen: Kleinman-Bylander projectors: 
   l= 0   rc=  1.364359   el= -0.477200   Ekb= -2.021939   kbcos= -0.344793
   l= 1   rc=  1.434438   el=  0.001076   Ekb= -0.443447   kbcos= -0.022843
   l= 2   rc=  1.470814   el=  0.002010   Ekb= -0.140543   kbcos= -0.002863

KBgen: Total number of Kleinman-Bylander projectors:    9
atom: -------------------------------------------------------------------------

atom: SANKEY-TYPE ORBITALS:
atom: Selected multiple-zeta basis: split     

atom: basis set generated (by rescaling the valence charge)
atom: for a cation of charge   0.2200

SPLIT: Orbitals with angular momentum L= 0

SPLIT: Basis orbitals for state 1s

   izeta = 1
                 lambda =    1.000000
                     rc =    4.950554
                 energy =   -0.678603
                kinetic =    1.118239
    potential(screened) =   -1.796842
       potential(ionic) =   -2.106311

   izeta = 2
                 rmatch =    1.774652
              splitnorm =    0.672347
                 energy =    1.027037
                kinetic =    4.730146
    potential(screened) =   -3.703109
       potential(ionic) =   -3.968059

SPLIT: Orbitals with angular momentum L= 1

SPLIT: Basis orbitals for state 2p

   izeta = 1
                 lambda =    1.000000
                     rc =    5.075940
                 energy =    0.310352
                kinetic =    0.887169
    potential(screened) =   -0.576817
       potential(ionic) =   -0.872649
atom: Total number of Sankey-type orbitals:  5

atm_pop: Valence configuration (for local Pseudopot. screening):
 1s( 1.00)                                                            
 2p( 0.00)                                                            
Vna: chval, zval:    1.00000   1.00000

Vna:  Cut-off radius for the neutral-atom potential:   4.950554

atom: _________________________________________________________________________

prinput: Basis input ----------------------------------------------------------

PAO.BasisType split     

%block ChemicalSpeciesLabel
    1    8 O                       # Species index, atomic number, species label
    2    1 H                       # Species index, atomic number, species label
%endblock ChemicalSpeciesLabel

%block PAO.Basis                 # Define Basis set
O                     3  -0.185            # Label, l-shells, ionic net charge
 n=2   0   2                         # n, l, Nzeta 
   7.356      4.690   
   1.000      1.000   
 n=2   1   2                         # n, l, Nzeta 
   6.656      3.066   
   1.000      1.000   
 n=3   2   1                         # n, l, Nzeta 
   6.997   
   1.000   
H                     2   0.220            # Label, l-shells, ionic net charge
 n=1   0   2                         # n, l, Nzeta 
   4.951      1.775   
   1.000      1.000   
 n=2   1   1                         # n, l, Nzeta 
   5.076   
   1.000   
%endblock PAO.Basis

prinput: ----------------------------------------------------------------------

Dumping basis to NetCDF file O.ion.nc
Dumping basis to NetCDF file H.ion.nc
coor:   Atomic-coordinates input format  =     Cartesian coordinates
coor:                                          (in Angstroms)

ioxv: Reading coordinates and velocities from file
! Info in XV file prevails over previous structure input
WARNING: xoc.VERLET_RESTART not found--reading only XV file and moving back 1 time step using Euler

siesta: Atomic coordinates (Bohr) and species
siesta:      9.54735  -0.00100  -0.00070  1        1
siesta:      7.01155  -0.00100  -0.00070  1        2
siesta:     12.94052   0.01600   0.01130  2        3
siesta:     14.34566   0.01600   0.01130  2        4

siesta: System type = chain     

initatomlists: Number of atoms, orbitals, and projectors:      4    36    50

coxmol: Writing XMOL coordinates into file xoc.xyz                                                             

siesta: ******************** Simulation parameters ****************************
siesta:
siesta: The following are some of the parameters of the simulation.
siesta: A complete list of the parameters used, including default values,
siesta: can be found in file out.fdf
siesta:
redata: Spin configuration                          = none
redata: Number of spin components                   = 1
redata: Time-Reversal Symmetry                      = T
redata: Spin spiral                                 = F
redata: Long output                                 =   F
redata: Number of Atomic Species                    =        2
redata: Charge density info will appear in .RHO file
redata: Write Mulliken Pop.                         = NO
redata: Matel table size (NRTAB)                    =     1024
redata: Mesh Cutoff                                 =   200.0000 Ry
redata: Net charge of the system                    =     0.0000 |e|
redata: Min. number of SCF Iter                     =        0
redata: Max. number of SCF Iter                     =      150
redata: SCF convergence failure will abort job
redata: SCF mix quantity                            = Hamiltonian
redata: Mix DM or H after convergence               =   F
redata: Recompute H after scf cycle                 =   F
redata: Mix DM in first SCF step                    =   T
redata: Write Pulay info on disk                    =   F
redata: New DM Occupancy tolerance                  = 0.000000000001
redata: No kicks to SCF
redata: DM Mixing Weight for Kicks                  =     0.5000
redata: Require Harris convergence for SCF          =   F
redata: Harris energy tolerance for SCF             =     0.000100 eV
redata: Require DM convergence for SCF              =   T
redata: DM tolerance for SCF                        =     0.000300
redata: Require EDM convergence for SCF             =   F
redata: EDM tolerance for SCF                       =     0.001000 eV
redata: Require H convergence for SCF               =   T
redata: Hamiltonian tolerance for SCF               =     0.001000 eV
redata: Require (free) Energy convergence for SCF   =   F
redata: (free) Energy tolerance for SCF             =     0.000100 eV
redata: Using Saved Data (generic)                  =   F
redata: Use continuation files for DM               =   F
redata: Neglect nonoverlap interactions             =   F
redata: Method of Calculation                       = Diagonalization
redata: Electronic Temperature                      =   290.1109 K
redata: Fix the spin of the system                  =   F
redata: Dynamics option                             = Verlet MD run
redata: Initial MD time step                        =        1
redata:   Final MD time step                        =      100
redata: Length of MD time step                      =     1.0000 fs
redata: Initial Temperature of MD run               =     0.0000 K
redata: Perform a MD quench                         =   F
mix.SCF: Pulay mixing                            = Pulay
mix.SCF:    Variant                              = stable
mix.SCF:    History steps                        = 6
mix.SCF:    Linear mixing weight                 =     0.020000
mix.SCF:    Mixing weight                        =     0.020000
mix.SCF:    SVD condition                        = 0.1000E-07
redata: Save all siesta data in one NC              =   F
redata: ***********************************************************************

%block SCF.Mixers
  Pulay
%endblock SCF.Mixers

%block SCF.Mixer.Pulay
  # Mixing method
  method pulay
  variant stable

  # Mixing options
  weight 0.0200
  weight.linear 0.0200
  history 6
%endblock SCF.Mixer.Pulay

Size of DM history Fstack: 1
Total number of electrons:    14.000000
Total ionic charge:    14.000000
 Kpoints in:            1 . Kpoints trimmed:            1

siesta: k-grid: Number of k-points =     1
siesta: k-grid: Cutoff (effective) =     5.000 Ang
siesta: k-grid: Supercell and displacements
siesta: k-grid:    1   0   0      0.000
siesta: k-grid:    0   1   0      0.000
siesta: k-grid:    0   0   1      0.000

diag: Algorithm                                     = D&C
diag: Used triangular part                          = Lower
diag: Absolute tolerance                            =  0.100E-15
diag: Orthogonalization factor                      =  0.100E-05
diag: Memory factor                                 =  1.0000


ts: **************************************************************
ts: Save H and S matrices                           =    F
ts: Save DM and EDM matrices                        =    F
ts: Only save the overlap matrix S                  =    F
ts: **************************************************************

************************ Begin: TS CHECKS AND WARNINGS ************************
************************ End: TS CHECKS AND WARNINGS **************************


                     ====================================
                        Begin MD step =      1
                     ====================================

outcell: Unit cell vectors (Ang):
       10.000000    0.000000    0.000000
        0.000000   10.000000    0.000000
        0.000000    0.000000   10.000000

outcell: Cell vector modules (Ang)   :   10.000000   10.000000   10.000000
outcell: Cell angles (23,13,12) (deg):     90.0000     90.0000     90.0000
outcell: Cell volume (Ang**3)        :   1000.0000
Gamma-point calculation with multiply-connected orbital pairs
Folding of H and S implicitly performed
<dSpData1D:S at geom step 1
  <sparsity:sparsity for geom step 1
    nrows_g=36 nrows=36 sparsity=.9954 nnzs=1290, refcount: 7>
  <dData1D:(new from dSpData1D) n=1290, refcount: 1>
refcount: 1>
new_DM -- step:     1
Initializing Density Matrix...
DM filled with atomic data:
<dSpData2D:DM initialized from atoms
  <sparsity:sparsity for geom step 1
    nrows_g=36 nrows=36 sparsity=.9954 nnzs=1290, refcount: 8>
  <dData2D:DM n=1290 m=1, refcount: 1>
refcount: 1>
No. of atoms with KB's overlaping orbs in proc 0. Max # of overlaps:       4      35
New grid distribution:   1
           1       1:   45    1:   45    1:   45

InitMesh: MESH =    90 x    90 x    90 =      729000
InitMesh: (bp) =    45 x    45 x    45 =       91125
InitMesh: Mesh cutoff (required, used) =   200.000   223.865 Ry
ExtMesh (bp) on 0 =   117 x   117 x   117 =     1601613
PhiOnMesh: Number of (b)points on node 0 =                91125
PhiOnMesh: nlist on node 0 =               451231

stepf: Fermi-Dirac step function

siesta: Program's energy decomposition (eV):
siesta: Ebs     =      -190.536266
siesta: Eions   =      1592.294315
siesta: Ena     =       380.451326
siesta: Ekin    =       660.591870
siesta: Enl     =       -98.768893
siesta: Eso     =         0.000000
siesta: Edftu   =         0.000000
siesta: DEna    =       -42.044515
siesta: DUscf   =         2.792950
siesta: DUext   =         0.000000
siesta: Exc     =      -210.494968
siesta: eta*DQ  =         0.000000
siesta: Emadel  =         0.000000
siesta: Emeta   =         0.000000
siesta: Emolmec =         0.000000
siesta: Ekinion =         0.000000
siesta: Eharris =      -900.569946
siesta: Etot    =      -899.766545
siesta: FreeEng =      -899.835860

        iscf     Eharris(eV)        E_KS(eV)     FreeEng(eV)     dDmax    Ef(eV) dHmax(eV)
   scf:    1     -900.569946     -899.766545     -899.835860  2.474904 -9.601369  4.650446
timer: Routine,Calls,Time,% = IterSCF        1       1.388  36.72
   scf:    2     -899.844951     -899.805881     -899.875195  0.041004 -9.514933  4.480674
   scf:    3     -900.725044     -900.388515     -900.457829  1.520237 -7.112767  0.833408
   scf:    4     -900.387179     -900.388422     -900.457736  0.120380 -7.250413  0.862033
   scf:    5     -900.294425     -900.357642     -900.426956  0.838854 -6.539911  1.562456
   scf:    6     -900.413644     -900.401657     -900.470972  0.660279 -7.291062  0.415269
   scf:    7     -900.404006     -900.403346     -900.472661  0.033642 -7.255907  0.253272
   scf:    8     -900.403515     -900.403581     -900.472890  0.007811 -7.233529  0.230680
   scf:    9     -900.405055     -900.404544     -900.473854  0.067163 -7.149213  0.015172
   scf:   10     -900.404600     -900.404604     -900.473919  0.006495 -7.141671  0.008672
   scf:   11     -900.404605     -900.404605     -900.473919  0.002024 -7.144244  0.004210
   scf:   12     -900.404604     -900.404605     -900.473919  0.000434 -7.144118  0.003938
   scf:   13     -900.404604     -900.404604     -900.473919  0.000294 -7.143876  0.004116
   scf:   14     -900.404604     -900.404604     -900.473919  0.000390 -7.143598  0.003974
   scf:   15     -900.404604     -900.404604     -900.473919  0.000395 -7.143618  0.002793
   scf:   16     -900.404603     -900.404604     -900.473918  0.001302 -7.143183  0.000925
   scf:   17     -900.404605     -900.404605     -900.473919  0.000430 -7.143214  0.000804
   scf:   18     -900.404605     -900.404605     -900.473919  0.000130 -7.143183  0.000743

SCF Convergence by DM+H criterion
max |DM_out - DM_in|         :     0.0001301409
max |H_out - H_in|      (eV) :     0.0007428888
SCF cycle converged after 18 iterations

Using DM_out to compute the final energy and forces
No. of atoms with KB's overlaping orbs in proc 0. Max # of overlaps:       4      35

siesta: E_KS(eV) =             -900.4046

siesta: E_KS - E_eggbox =      -900.4046

siesta: Atomic forces (eV/Ang):
----------------------------------------
   Tot    0.027347    0.000875    0.000704
----------------------------------------
   Max    2.398484
   Res    0.860967    sqrt( Sum f_i^2 / 3N )
----------------------------------------
   Max    2.398484    constrained

Stress tensor Voigt[x,y,z,yz,xz,xy] (kbar):      -15.23       -0.42       -0.25       -0.10        0.04        0.25
(Free)E + p*V (eV/cell)     -897.1664
Target enthalpy (eV/cell)     -900.4739

siesta: Stress tensor (static) (eV/Ang**3):
         0.000689   -0.000008   -0.000006
        -0.000008    0.000006   -0.000000
        -0.000006   -0.000000    0.000006

siesta: Pressure (static):         -0.37425143  kBar

siesta: Stress tensor (total) (eV/Ang**3):
        -0.009509    0.000156    0.000024
         0.000156   -0.000260   -0.000060
         0.000024   -0.000060   -0.000154

siesta: Pressure (total):          5.29922337  kBar

siesta: Temp_ion =   13797.487 K

                     ====================================
                        Begin MD step =      2
                     ====================================

outcell: Unit cell vectors (Ang):
       10.000000    0.000000    0.000000
        0.000000   10.000000    0.000000
        0.000000    0.000000   10.000000

outcell: Cell vector modules (Ang)   :   10.000000   10.000000   10.000000
outcell: Cell angles (23,13,12) (deg):     90.0000     90.0000     90.0000
outcell: Cell volume (Ang**3)        :   1000.0000
Gamma-point calculation with multiply-connected orbital pairs
Folding of H and S implicitly performed
<dSpData1D:S at geom step 2
  <sparsity:sparsity for geom step 2
    nrows_g=36 nrows=36 sparsity=.9954 nnzs=1290, refcount: 7>
  <dData1D:(new from dSpData1D) n=1290, refcount: 1>
refcount: 1>
new_DM -- step:     2
Re-using DM from previous geometries...
Number of DMs in history: 1
 DM extrapolation coefficients: 
1   1.00000
New DM after history re-use:
<dSpData2D:SpM extrapolated using coords
  <sparsity:sparsity for geom step 2
    nrows_g=36 nrows=36 sparsity=.9954 nnzs=1290, refcount: 9>
  <dData2D:(temp array for extrapolation) n=1290 m=1, refcount: 1>
refcount: 1>
Note: For starting DM, Qtot, Tr[D*S] =         14.00000000         13.97346500
No. of atoms with KB's overlaping orbs in proc 0. Max # of overlaps:       4      35
New grid distribution:   1
           1       1:   45    1:   45    1:   45

InitMesh: MESH =    90 x    90 x    90 =      729000
InitMesh: (bp) =    45 x    45 x    45 =       91125
InitMesh: Mesh cutoff (required, used) =   200.000   223.865 Ry
ExtMesh (bp) on 0 =   117 x   117 x   117 =     1601613
PhiOnMesh: Number of (b)points on node 0 =                91125
PhiOnMesh: nlist on node 0 =               451322

        iscf     Eharris(eV)        E_KS(eV)     FreeEng(eV)     dDmax    Ef(eV) dHmax(eV)
   scf:    1     -900.052031     -900.116437     -900.185749  0.762752 -7.220141  0.480115
   scf:    2     -898.582471     -899.637805     -899.706816  0.314594 -7.207547  2.807041
   scf:    3     -900.200892     -900.130670     -900.199984  0.265771 -7.222048  0.252097
   scf:    4     -900.132417     -900.131833     -900.201129  0.048385 -7.221715  0.093582
   scf:    5     -900.131925     -900.131922     -900.201211  0.026859 -7.221710  0.040278
   scf:    6     -900.132143     -900.132204     -900.201519  0.016002 -7.221949  0.035147
   scf:    7     -900.132202     -900.132210     -900.201525  0.007421 -7.223716  0.014246
   scf:    8     -900.132221     -900.132221     -900.201535  0.001452 -7.223547  0.002927
   scf:    9     -900.132221     -900.132221     -900.201536  0.001052 -7.223056  0.001306
   scf:   10     -900.132221     -900.132221     -900.201536  0.000146 -7.223182  0.000297

SCF Convergence by DM+H criterion
max |DM_out - DM_in|         :     0.0001464268
max |H_out - H_in|      (eV) :     0.0002966847
SCF cycle converged after 10 iterations

Using DM_out to compute the final energy and forces
No. of atoms with KB's overlaping orbs in proc 0. Max # of overlaps:       4      35

siesta: E_KS(eV) =             -900.1322

siesta: Atomic forces (eV/Ang):
----------------------------------------
   Tot    0.040565    0.001451    0.000262
----------------------------------------
   Max    3.382298
   Res    1.145815    sqrt( Sum f_i^2 / 3N )
----------------------------------------
   Max    3.382298    constrained

Stress tensor Voigt[x,y,z,yz,xz,xy] (kbar):      -18.63       -0.42       -0.25       -0.10        0.03        0.16
(Free)E + p*V (eV/cell)     -896.1861
Target enthalpy (eV/cell)     -900.2015

siesta: Stress tensor (static) (eV/Ang**3):
        -0.001431   -0.000061   -0.000013
        -0.000061    0.000005   -0.000001
        -0.000013   -0.000001    0.000003

siesta: Pressure (static):          0.76005200  kBar

siesta: Stress tensor (total) (eV/Ang**3):
        -0.011629    0.000103    0.000016
         0.000103   -0.000261   -0.000061
         0.000016   -0.000061   -0.000157

siesta: Pressure (total):          6.43352680  kBar

siesta: Temp_ion =   13036.821 K

                     ====================================
                        Begin MD step =      3
                     ====================================

outcell: Unit cell vectors (Ang):
       10.000000    0.000000    0.000000
        0.000000   10.000000    0.000000
        0.000000    0.000000   10.000000

outcell: Cell vector modules (Ang)   :   10.000000   10.000000   10.000000
outcell: Cell angles (23,13,12) (deg):     90.0000     90.0000     90.0000
outcell: Cell volume (Ang**3)        :   1000.0000
Gamma-point calculation with multiply-connected orbital pairs
Folding of H and S implicitly performed
<dSpData1D:S at geom step 3
  <sparsity:sparsity for geom step 3
    nrows_g=36 nrows=36 sparsity=.9954 nnzs=1290, refcount: 7>
  <dData1D:(new from dSpData1D) n=1290, refcount: 1>
refcount: 1>
new_DM -- step:     3
Re-using DM from previous geometries...
Number of DMs in history: 1
 DM extrapolation coefficients: 
1   1.00000
New DM after history re-use:
<dSpData2D:SpM extrapolated using coords
  <sparsity:sparsity for geom step 3
    nrows_g=36 nrows=36 sparsity=.9954 nnzs=1290, refcount: 9>
  <dData2D:(temp array for extrapolation) n=1290 m=1, refcount: 1>
refcount: 1>
Note: For starting DM, Qtot, Tr[D*S] =         14.00000000         13.94034750
No. of atoms with KB's overlaping orbs in proc 0. Max # of overlaps:       4      35
New grid distribution:   1
           1       1:   45    1:   45    1:   45

InitMesh: MESH =    90 x    90 x    90 =      729000
InitMesh: (bp) =    45 x    45 x    45 =       91125
InitMesh: Mesh cutoff (required, used) =   200.000   223.865 Ry
ExtMesh (bp) on 0 =   117 x   117 x   117 =     1601613
PhiOnMesh: Number of (b)points on node 0 =                91125
PhiOnMesh: nlist on node 0 =               451350

        iscf     Eharris(eV)        E_KS(eV)     FreeEng(eV)     dDmax    Ef(eV) dHmax(eV)
   scf:    1     -898.904033     -899.538511     -899.607801  0.542740 -7.120676  1.170692
   scf:    2     -894.923488     -898.099096     -898.166241  0.648732 -7.452770  5.459298
   scf:    3     -899.803568     -899.581228     -899.650538  0.541855 -7.186481  0.535343
   scf:    4     -899.572732     -899.581592     -899.650533  0.208797 -7.368037  0.221769
   scf:    5     -899.586019     -899.584002     -899.653116  0.028193 -7.342643  0.137504
   scf:    6     -899.586375     -899.586118     -899.655430  0.029900 -7.340242  0.111620
   scf:    7     -899.586492     -899.586377     -899.655690  0.016650 -7.306657  0.040324
   scf:    8     -899.586451     -899.586431     -899.655745  0.008585 -7.300724  0.013779
   scf:    9     -899.586430     -899.586431     -899.655745  0.000295 -7.300073  0.014104
   scf:   10     -899.586433     -899.586433     -899.655747  0.004075 -7.303178  0.000985
   scf:   11     -899.586433     -899.586433     -899.655747  0.000143 -7.303190  0.000901

SCF Convergence by DM+H criterion
max |DM_out - DM_in|         :     0.0001429237
max |H_out - H_in|      (eV) :     0.0009012483
SCF cycle converged after 11 iterations

Using DM_out to compute the final energy and forces
No. of atoms with KB's overlaping orbs in proc 0. Max # of overlaps:       4      35

siesta: E_KS(eV) =             -899.5864

siesta: Atomic forces (eV/Ang):
----------------------------------------
   Tot   -0.162536    0.001697   -0.000468
----------------------------------------
   Max    4.769141
   Res    1.589802    sqrt( Sum f_i^2 / 3N )
----------------------------------------
   Max    4.769141    constrained

Stress tensor Voigt[x,y,z,yz,xz,xy] (kbar):      -22.55       -0.43       -0.28       -0.11        0.01       -0.02
(Free)E + p*V (eV/cell)     -894.8170
Target enthalpy (eV/cell)     -899.6557

siesta: Stress tensor (static) (eV/Ang**3):
        -0.004463   -0.000143   -0.000035
        -0.000143   -0.000003   -0.000009
        -0.000035   -0.000009   -0.000013

siesta: Pressure (static):          2.39184546  kBar

siesta: Stress tensor (total) (eV/Ang**3):
        -0.014073   -0.000011    0.000004
        -0.000011   -0.000268   -0.000070
         0.000004   -0.000070   -0.000175

siesta: Pressure (total):          7.75253738  kBar

siesta: Temp_ion =   11612.078 K

                     ====================================
                        Begin MD step =      4
                     ====================================

outcell: Unit cell vectors (Ang):
       10.000000    0.000000    0.000000
        0.000000   10.000000    0.000000
        0.000000    0.000000   10.000000

outcell: Cell vector modules (Ang)   :   10.000000   10.000000   10.000000
outcell: Cell angles (23,13,12) (deg):     90.0000     90.0000     90.0000
outcell: Cell volume (Ang**3)        :   1000.0000
<dSpData1D:S at geom step 4
  <sparsity:sparsity for geom step 4
    nrows_g=36 nrows=36 sparsity=1.0000 nnzs=1296, refcount: 7>
  <dData1D:(new from dSpData1D) n=1296, refcount: 1>
refcount: 1>
new_DM -- step:     4
Re-using DM from previous geometries...
Number of DMs in history: 1
 DM extrapolation coefficients: 
1   1.00000
New DM after history re-use:
<dSpData2D:SpM extrapolated using coords
  <sparsity:sparsity for geom step 4
    nrows_g=36 nrows=36 sparsity=1.0000 nnzs=1296, refcount: 9>
  <dData2D:(temp array for extrapolation) n=1296 m=1, refcount: 1>
refcount: 1>
Note: For starting DM, Qtot, Tr[D*S] =         14.00000000         13.91695027
No. of atoms with KB's overlaping orbs in proc 0. Max # of overlaps:       4      36
New grid distribution:   1
           1       1:   45    1:   45    1:   45

InitMesh: MESH =    90 x    90 x    90 =      729000
InitMesh: (bp) =    45 x    45 x    45 =       91125
InitMesh: Mesh cutoff (required, used) =   200.000   223.865 Ry
ExtMesh (bp) on 0 =   117 x   117 x   117 =     1601613
PhiOnMesh: Number of (b)points on node 0 =                91125
PhiOnMesh: nlist on node 0 =               451326

        iscf     Eharris(eV)        E_KS(eV)     FreeEng(eV)     dDmax    Ef(eV) dHmax(eV)
   scf:    1     -896.996880     -898.516421     -898.585252  0.361569 -7.072619  2.028067
   scf:    2     -885.948630     -894.602853     -894.648190  0.659724 -7.683827  9.510738
   scf:    3     -899.236740     -898.631948     -898.701171  0.543722 -7.201903  0.694435
   scf:    4     -898.571691     -898.605881     -898.673995  0.067272 -7.118385  0.960756
   scf:    5     -898.508184     -898.612921     -898.679045  0.241824 -7.446880  0.363120
   scf:    6     -898.654861     -898.638344     -898.706851  0.069471 -7.420133  0.229677
   scf:    7     -898.647659     -898.644552     -898.713720  0.040571 -7.431207  0.176239
   scf:    8     -898.644030     -898.644584     -898.713645  0.015208 -7.393045  0.077506
   scf:    9     -898.646367     -898.646427     -898.715731  0.032505 -7.378762  0.021149
   scf:   10     -898.646374     -898.646417     -898.715710  0.004523 -7.383642  0.012381
   scf:   11     -898.646404     -898.646431     -898.715738  0.005340 -7.386749  0.003357
   scf:   12     -898.646440     -898.646436     -898.715742  0.000592 -7.386539  0.002004
   scf:   13     -898.646445     -898.646442     -898.715747  0.001455 -7.386711  0.001392
   scf:   14     -898.646442     -898.646442     -898.715747  0.000064 -7.386748  0.001273
   scf:   15     -898.646442     -898.646442     -898.715747  0.000396 -7.387626  0.000951
   scf:   16     -898.646443     -898.646442     -898.715747  0.000111 -7.387733  0.000897

SCF Convergence by DM+H criterion
max |DM_out - DM_in|         :     0.0001113226
max |H_out - H_in|      (eV) :     0.0008971007
SCF cycle converged after 16 iterations

Using DM_out to compute the final energy and forces
No. of atoms with KB's overlaping orbs in proc 0. Max # of overlaps:       4      36

siesta: E_KS(eV) =             -898.6464

siesta: Atomic forces (eV/Ang):
----------------------------------------
   Tot   -0.012464    0.002654   -0.000810
----------------------------------------
   Max    6.811856
   Res    2.414851    sqrt( Sum f_i^2 / 3N )
----------------------------------------
   Max    6.811856    constrained

Stress tensor Voigt[x,y,z,yz,xz,xy] (kbar):      -29.81       -0.47       -0.37       -0.15        0.10       -0.18
(Free)E + p*V (eV/cell)     -892.3384
Target enthalpy (eV/cell)     -898.7157

siesta: Stress tensor (static) (eV/Ang**3):
        -0.010107   -0.000200    0.000036
        -0.000200   -0.000025   -0.000025
         0.000036   -0.000025   -0.000060

siesta: Pressure (static):          5.44292440  kBar

siesta: Stress tensor (total) (eV/Ang**3):
        -0.018605   -0.000112    0.000064
        -0.000112   -0.000294   -0.000093
         0.000064   -0.000093   -0.000233

siesta: Pressure (total):         10.21776728  kBar

siesta: Temp_ion =    9198.486 K

                     ====================================
                        Begin MD step =      5
                     ====================================

outcell: Unit cell vectors (Ang):
       10.000000    0.000000    0.000000
        0.000000   10.000000    0.000000
        0.000000    0.000000   10.000000

outcell: Cell vector modules (Ang)   :   10.000000   10.000000   10.000000
outcell: Cell angles (23,13,12) (deg):     90.0000     90.0000     90.0000
outcell: Cell volume (Ang**3)        :   1000.0000
<dSpData1D:S at geom step 5
  <sparsity:sparsity for geom step 5
    nrows_g=36 nrows=36 sparsity=1.0000 nnzs=1296, refcount: 7>
  <dData1D:(new from dSpData1D) n=1296, refcount: 1>
refcount: 1>
new_DM -- step:     5
Re-using DM from previous geometries...
Number of DMs in history: 1
 DM extrapolation coefficients: 
1   1.00000
New DM after history re-use:
<dSpData2D:SpM extrapolated using coords
  <sparsity:sparsity for geom step 5
    nrows_g=36 nrows=36 sparsity=1.0000 nnzs=1296, refcount: 9>
  <dData2D:(temp array for extrapolation) n=1296 m=1, refcount: 1>
refcount: 1>
Note: For starting DM, Qtot, Tr[D*S] =         14.00000000         13.91574805
No. of atoms with KB's overlaping orbs in proc 0. Max # of overlaps:       4      36
New grid distribution:   1
           1       1:   45    1:   45    1:   45

InitMesh: MESH =    90 x    90 x    90 =      729000
InitMesh: (bp) =    45 x    45 x    45 =       91125
InitMesh: Mesh cutoff (required, used) =   200.000   223.865 Ry
ExtMesh (bp) on 0 =   117 x   117 x   117 =     1601613
PhiOnMesh: Number of (b)points on node 0 =                91125
PhiOnMesh: nlist on node 0 =               451339

        iscf     Eharris(eV)        E_KS(eV)     FreeEng(eV)     dDmax    Ef(eV) dHmax(eV)
   scf:    1     -895.071791     -897.157523     -897.218757  0.297868 -7.152600  2.009280
   scf:    2     -881.734385     -892.452158     -892.459847  0.928067 -7.445442  9.832565
   scf:    3     -898.050809     -897.330063     -897.398582  0.825975 -7.241161  0.481951
   scf:    4     -897.335648     -897.332905     -897.401567  0.006849 -7.243340  0.488813
   scf:    5     -897.142278     -897.303769     -897.366036  0.265483 -7.291778  0.432224
   scf:    6     -897.136538     -897.231549     -897.285229  0.126942 -7.393311  0.498187
   scf:    7     -897.281132     -897.257561     -897.314127  0.028721 -7.395731  0.313469
   scf:    8     -897.395806     -897.351640     -897.418994  0.161979 -7.390188  0.103755
   scf:    9     -897.351708     -897.360128     -897.429395  0.094215 -7.386049  0.062556
   scf:   10     -897.340800     -897.352345     -897.421477  0.044959 -7.390309  0.120571
   scf:   11     -897.352314     -897.360198     -897.428924  0.092335 -7.384505  0.080583
   scf:   12     -897.344909     -897.353976     -897.421752  0.041137 -7.380618  0.174641
   scf:   13     -897.363597     -897.360594     -897.429417  0.041839 -7.381014  0.045704
   scf:   14     -897.361032     -897.361217     -897.430335  0.021553 -7.382988  0.005126
   scf:   15     -897.361257     -897.361242     -897.430350  0.002209 -7.383667  0.004776
   scf:   16     -897.361242     -897.361242     -897.430352  0.000472 -7.383541  0.004258
   scf:   17     -897.361236     -897.361239     -897.430352  0.000913 -7.383384  0.003797
   scf:   18     -897.361227     -897.361233     -897.430352  0.001052 -7.383941  0.004055
   scf:   19     -897.361235     -897.361234     -897.430352  0.000257 -7.384051  0.003884
   scf:   20     -897.361264     -897.361251     -897.430353  0.001263 -7.385099  0.002285
   scf:   21     -897.361252     -897.361252     -897.430353  0.000220 -7.385431  0.001889
   scf:   22     -897.361240     -897.361246     -897.430354  0.000902 -7.386696  0.000804
   scf:   23     -897.361241     -897.361244     -897.430355  0.000658 -7.387011  0.000329
   scf:   24     -897.361244     -897.361244     -897.430355  0.000016 -7.387005  0.000332

SCF Convergence by DM+H criterion
max |DM_out - DM_in|         :     0.0000161585
max |H_out - H_in|      (eV) :     0.0003316308
SCF cycle converged after 24 iterations

Using DM_out to compute the final energy and forces
No. of atoms with KB's overlaping orbs in proc 0. Max # of overlaps:       4      36

siesta: E_KS(eV) =             -897.3612

siesta: Atomic forces (eV/Ang):
----------------------------------------
   Tot    0.031440    0.003884   -0.000878
----------------------------------------
   Max    9.389804
   Res    3.628929    sqrt( Sum f_i^2 / 3N )
----------------------------------------
   Max    9.389804    constrained

Stress tensor Voigt[x,y,z,yz,xz,xy] (kbar):      -36.98       -0.64       -0.67       -0.24        0.39       -0.27
(Free)E + p*V (eV/cell)     -889.4650
Target enthalpy (eV/cell)     -897.4304

siesta: Stress tensor (static) (eV/Ang**3):
        -0.016485   -0.000222    0.000231
        -0.000222   -0.000115   -0.000068
         0.000231   -0.000068   -0.000214

siesta: Pressure (static):          8.97971323  kBar

siesta: Stress tensor (total) (eV/Ang**3):
        -0.023078   -0.000167    0.000241
        -0.000167   -0.000397   -0.000149
         0.000241   -0.000149   -0.000421

siesta: Pressure (total):         12.76209604  kBar

siesta: Temp_ion =    5979.634 K

                     ====================================
                        Begin MD step =      6
                     ====================================

outcell: Unit cell vectors (Ang):
       10.000000    0.000000    0.000000
        0.000000   10.000000    0.000000
        0.000000    0.000000   10.000000

outcell: Cell vector modules (Ang)   :   10.000000   10.000000   10.000000
outcell: Cell angles (23,13,12) (deg):     90.0000     90.0000     90.0000
outcell: Cell volume (Ang**3)        :   1000.0000
<dSpData1D:S at geom step 6
  <sparsity:sparsity for geom step 6
    nrows_g=36 nrows=36 sparsity=1.0000 nnzs=1296, refcount: 7>
  <dData1D:(new from dSpData1D) n=1296, refcount: 1>
refcount: 1>
new_DM -- step:     6
Re-using DM from previous geometries...
Number of DMs in history: 1
 DM extrapolation coefficients: 
1   1.00000
New DM after history re-use:
<dSpData2D:SpM extrapolated using coords
  <sparsity:sparsity for geom step 6
    nrows_g=36 nrows=36 sparsity=1.0000 nnzs=1296, refcount: 9>
  <dData2D:(temp array for extrapolation) n=1296 m=1, refcount: 1>
refcount: 1>
Note: For starting DM, Qtot, Tr[D*S] =         14.00000000         13.93595243
No. of atoms with KB's overlaping orbs in proc 0. Max # of overlaps:       4      36
New grid distribution:   1
           1       1:   45    1:   45    1:   45

InitMesh: MESH =    90 x    90 x    90 =      729000
InitMesh: (bp) =    45 x    45 x    45 =       91125
InitMesh: Mesh cutoff (required, used) =   200.000   223.865 Ry
ExtMesh (bp) on 0 =   117 x   117 x   117 =     1601613
PhiOnMesh: Number of (b)points on node 0 =                91125
PhiOnMesh: nlist on node 0 =               451274

        iscf     Eharris(eV)        E_KS(eV)     FreeEng(eV)     dDmax    Ef(eV) dHmax(eV)
   scf:    1     -884.060193     -892.746651     -892.757000  2.089664 -7.110793  8.790973
   scf:    2     -839.174069     -879.507536     -879.508344  7.931336 -2.221795 25.175497
   scf:    3     -903.638881     -893.717344     -893.767199  6.213184 -5.946219  9.195322
   scf:    4     -857.889371     -885.704908     -885.704934  2.569349 -7.225801 14.645835
   scf:    5     -872.819724     -879.594183     -879.594183  0.415131 -7.380020 18.257649
   scf:    6     -884.990891     -882.354967     -882.354967  0.140792 -7.365866 16.560190
   scf:    7     -896.824915     -895.809924     -895.817069  2.685073 -7.075070  2.529864
   scf:    8     -890.017574     -893.743665     -893.747034  0.961541 -7.175512  7.072695
   scf:    9     -892.484613     -895.488183     -895.508055  1.322768 -6.662418  3.792495
   scf:   10     -896.015763     -895.794467     -895.818283  0.242042 -6.909195  3.170102
   scf:   11     -856.213390     -883.333150     -883.333225  3.003949 -7.308804 15.566327
   scf:   12     -891.771594     -888.182252     -888.182252  0.968101 -7.047565 13.042679
   scf:   13     -887.397973     -894.875293     -894.875335  2.179877 -6.748955  5.113765
   scf:   14     -895.288096     -895.095312     -895.101009  0.297972 -6.763030  4.288831
   scf:   15     -895.809889     -895.491450     -895.536994  0.209217 -6.744661  3.924934
   scf:   16     -896.500584     -896.078853     -896.138570  0.475466 -7.119876  1.539795
   scf:   17     -860.487968     -884.713480     -884.717355  3.085120 -7.270834 14.862986
   scf:   18     -883.763762     -884.241034     -884.241954  0.055358 -7.281359 15.114298
   scf:   19     -882.980140     -883.615023     -883.615039  0.069334 -7.303719 15.565161
   scf:   20     -884.718853     -884.175154     -884.175166  0.144030 -7.240384 15.495265
   scf:   21     -891.524512     -888.060502     -888.063905  0.499625 -7.202872 13.186854
   scf:   22     -896.447929     -892.776691     -892.793654  0.898304 -7.182413  8.835565
   scf:   23     -891.564461     -895.413099     -895.413562  1.808489 -7.207463  2.235892
   scf:   24     -895.892961     -896.000143     -896.062811  0.531964 -7.199200  1.744676
   scf:   25     -895.219490     -895.716945     -895.748110  0.306900 -7.220635  0.970954
   scf:   26     -893.532294     -895.173114     -895.241344  0.822588 -7.217806  4.860421
   scf:   27     -889.218313     -892.817679     -892.847620  0.818708 -7.189010  8.808016
   scf:   28     -889.917052     -891.424152     -891.432448  0.269333 -7.149842 10.454659
   scf:   29     -896.412309     -894.248518     -894.264136  0.694981 -7.167708  6.689159
   scf:   30     -891.755764     -895.432845     -895.435571  1.362370 -7.200751  2.364388
   scf:   31     -896.374670     -895.966536     -896.020503  0.284039 -7.127152  1.808107
   scf:   32     -895.863086     -895.994676     -896.046335  0.188045 -7.196942  0.702758
   scf:   33     -895.390869     -895.769054     -895.805907  0.169514 -7.147433  1.985184
   scf:   34     -895.677888     -895.724313     -895.756085  0.028897 -7.164181  1.917111
   scf:   35     -894.944834     -895.359675     -895.363987  0.148287 -7.094984  2.905314
   scf:   36     -895.480970     -895.420850     -895.430834  0.055870 -7.107979  2.751695
   scf:   37     -895.209501     -895.317088     -895.319477  0.170932 -7.066416  3.039347
   scf:   38     -895.230060     -895.274301     -895.277255  0.076420 -7.013619  3.262850
   scf:   39     -895.243065     -895.258759     -895.260593  0.072761 -7.009843  3.288401
   scf:   40     -894.670898     -894.985633     -894.995759  0.529058 -6.701382  4.686883
   scf:   41     -862.661314     -886.463127     -886.463311  2.589650 -7.073648 14.575195
   scf:   42     -890.323397     -895.496622     -895.497090  2.693976 -6.831007  3.661025
   scf:   43     -896.135296     -896.056271     -896.071378  0.414265 -7.072514  0.746003
   scf:   44     -895.593536     -896.174748     -896.242983  0.644372 -7.168152  1.890949
   scf:   45     -896.236697     -896.358259     -896.426651  0.314224 -7.117536  0.703684
   scf:   46     -895.641508     -896.083417     -896.149222  0.249307 -7.015254  2.575898
   scf:   47     -896.478577     -896.355320     -896.422245  0.234787 -7.116574  0.732649
   scf:   48     -896.286872     -896.349393     -896.419586  0.171563 -7.169769  0.215289
   scf:   49     -895.990709     -896.280415     -896.332050  0.371399 -7.145797  0.465380
   scf:   50     -896.381871     -896.355192     -896.419052  0.171194 -7.173434  0.446506
   scf:   51     -895.907253     -896.247962     -896.317364  0.242630 -7.149050  1.594570
   scf:   52     -896.419518     -896.368950     -896.437792  0.135164 -7.179450  0.400227
   scf:   53     -896.373983     -896.376676     -896.445476  0.060726 -7.188838  0.095858
   scf:   54     -895.977603     -896.239486     -896.306348  0.252057 -7.210728  1.756200
   scf:   55     -896.347220     -896.375770     -896.444219  0.265490 -7.187792  0.212667
   scf:   56     -896.363579     -896.370569     -896.439145  0.023278 -7.185647  0.412214
   scf:   57     -896.378994     -896.376079     -896.444973  0.025922 -7.193135  0.151829
   scf:   58     -896.377304     -896.376913     -896.445862  0.013200 -7.196479  0.052434
   scf:   59     -896.376651     -896.376804     -896.445811  0.005199 -7.198836  0.070553
   scf:   60     -896.376744     -896.376896     -896.445989  0.007751 -7.200516  0.018976
   scf:   61     -896.376779     -896.376896     -896.445923  0.006079 -7.199239  0.043889
   scf:   62     -896.376849     -896.376927     -896.445986  0.005237 -7.199763  0.013659
   scf:   63     -896.376860     -896.376901     -896.445989  0.001566 -7.199226  0.009131
   scf:   64     -896.376839     -896.376872     -896.445996  0.001283 -7.199164  0.003882
   scf:   65     -896.376898     -896.376886     -896.445999  0.000963 -7.198209  0.002041
   scf:   66     -896.376894     -896.376890     -896.446000  0.000419 -7.198147  0.001847
   scf:   67     -896.376902     -896.376896     -896.446001  0.000375 -7.198154  0.000991
   scf:   68     -896.376889     -896.376893     -896.446001  0.000189 -7.198204  0.000977

SCF Convergence by DM+H criterion
max |DM_out - DM_in|         :     0.0001892352
max |H_out - H_in|      (eV) :     0.0009774653
SCF cycle converged after 68 iterations

Using DM_out to compute the final energy and forces
No. of atoms with KB's overlaping orbs in proc 0. Max # of overlaps:       4      36

siesta: E_KS(eV) =             -896.3769

siesta: Atomic forces (eV/Ang):
----------------------------------------
   Tot    0.053584    0.003704    0.000098
----------------------------------------
   Max   10.653700
   Res    4.414740    sqrt( Sum f_i^2 / 3N )
----------------------------------------
   Max   10.653700    constrained

Stress tensor Voigt[x,y,z,yz,xz,xy] (kbar):      -37.92       -1.05       -1.46       -0.52        0.65       -0.46
(Free)E + p*V (eV/cell)     -888.0344
Target enthalpy (eV/cell)     -896.4460

siesta: Stress tensor (static) (eV/Ang**3):
        -0.019685   -0.000354    0.000400
        -0.000355   -0.000335   -0.000212
         0.000400   -0.000212   -0.000611

siesta: Pressure (static):         11.01813435  kBar

siesta: Stress tensor (total) (eV/Ang**3):
        -0.023665   -0.000287    0.000405
        -0.000287   -0.000657   -0.000322
         0.000405   -0.000322   -0.000913

siesta: Pressure (total):         13.47693735  kBar

siesta: Temp_ion =    3566.593 K

                     ====================================
                        Begin MD step =      7
                     ====================================

outcell: Unit cell vectors (Ang):
       10.000000    0.000000    0.000000
        0.000000   10.000000    0.000000
        0.000000    0.000000   10.000000

outcell: Cell vector modules (Ang)   :   10.000000   10.000000   10.000000
outcell: Cell angles (23,13,12) (deg):     90.0000     90.0000     90.0000
outcell: Cell volume (Ang**3)        :   1000.0000
<dSpData1D:S at geom step 7
  <sparsity:sparsity for geom step 7
    nrows_g=36 nrows=36 sparsity=1.0000 nnzs=1296, refcount: 7>
  <dData1D:(new from dSpData1D) n=1296, refcount: 1>
refcount: 1>
new_DM -- step:     7
Re-using DM from previous geometries...
Number of DMs in history: 1
 DM extrapolation coefficients: 
1   1.00000
New DM after history re-use:
<dSpData2D:SpM extrapolated using coords
  <sparsity:sparsity for geom step 7
    nrows_g=36 nrows=36 sparsity=1.0000 nnzs=1296, refcount: 9>
  <dData2D:(temp array for extrapolation) n=1296 m=1, refcount: 1>
refcount: 1>
Note: For starting DM, Qtot, Tr[D*S] =         14.00000000         13.95989702
No. of atoms with KB's overlaping orbs in proc 0. Max # of overlaps:       4      36
New grid distribution:   1
           1       1:   45    1:   45    1:   45

InitMesh: MESH =    90 x    90 x    90 =      729000
InitMesh: (bp) =    45 x    45 x    45 =       91125
InitMesh: Mesh cutoff (required, used) =   200.000   223.865 Ry
ExtMesh (bp) on 0 =   117 x   117 x   117 =     1601613
PhiOnMesh: Number of (b)points on node 0 =                91125
PhiOnMesh: nlist on node 0 =               451273

        iscf     Eharris(eV)        E_KS(eV)     FreeEng(eV)     dDmax    Ef(eV) dHmax(eV)
   scf:    1     -895.390549     -896.248450     -896.271163  0.391182 -6.846852  0.737122
   scf:    2     -888.698145     -894.141745     -894.141750  1.142295 -6.814970  6.419512
   scf:    3     -896.613519     -896.380760     -896.441123  0.880244 -6.851928  1.164589
   scf:    4     -895.420417     -896.039925     -896.107763  0.339926 -6.846279  2.746570
   scf:    5     -895.671430     -896.232096     -896.255343  0.601171 -6.806879  1.065292
   scf:    6     -892.133971     -895.191291     -895.206875  1.043733 -7.013280  3.181731
   scf:    7     -895.659981     -895.434438     -895.464098  0.063788 -7.007199  2.645690
   scf:    8     -896.160359     -895.823538     -895.874349  0.139886 -6.977827  1.948493
   scf:    9     -895.504081     -895.670403     -895.711703  0.073309 -7.022532  1.820645
   scf:   10     -896.437464     -896.253967     -896.323002  0.370862 -6.971355  0.922655
   scf:   11     -896.345449     -896.305933     -896.375048  0.076243 -6.962814  1.093901
   scf:   12     -896.055235     -896.232705     -896.294434  0.185144 -6.988922  2.069600
   scf:   13     -896.265790     -896.406185     -896.471947  0.370967 -6.959014  0.602323
   scf:   14     -896.414393     -896.416382     -896.483284  0.061780 -6.976116  0.205573
   scf:   15     -896.417792     -896.418553     -896.484283  0.038590 -6.965203  0.306399
   scf:   16     -896.410948     -896.415331     -896.481003  0.022317 -6.965878  0.429887
   scf:   17     -896.415509     -896.415478     -896.480953  0.008370 -6.967073  0.448148
   scf:   18     -896.424716     -896.420736     -896.486074  0.024071 -6.972442  0.311589
   scf:   19     -896.423643     -896.425137     -896.489873  0.049949 -6.981694  0.067594
   scf:   20     -896.426504     -896.425969     -896.490421  0.009540 -6.982374  0.056312
   scf:   21     -896.427024     -896.426708     -896.490687  0.017206 -6.986502  0.054844
   scf:   22     -896.426782     -896.426865     -896.490897  0.010722 -6.985517  0.041086
   scf:   23     -896.427112     -896.427007     -896.490921  0.003275 -6.987650  0.024434
   scf:   24     -896.426984     -896.427029     -896.490979  0.011585 -6.990176  0.022946
   scf:   25     -896.426927     -896.426987     -896.490996  0.002692 -6.991100  0.018539
   scf:   26     -896.426402     -896.426715     -896.490967  0.004427 -6.992418  0.014411
   scf:   27     -896.426627     -896.426672     -896.490965  0.000928 -6.992702  0.012400
   scf:   28     -896.426631     -896.426657     -896.490973  0.002483 -6.993168  0.010040
   scf:   29     -896.426645     -896.426651     -896.490972  0.001800 -6.993243  0.009864
   scf:   30     -896.426812     -896.426733     -896.490991  0.003523 -6.993314  0.009753
   scf:   31     -896.426884     -896.426810     -896.491006  0.001037 -6.993713  0.008126
   scf:   32     -896.427060     -896.426944     -896.491008  0.003644 -6.998013  0.005808
   scf:   33     -896.426909     -896.426927     -896.491008  0.001355 -6.999037  0.004795
   scf:   34     -896.426915     -896.426923     -896.491021  0.001313 -6.999177  0.004341
   scf:   35     -896.426911     -896.426918     -896.491025  0.000673 -6.999166  0.004039
   scf:   36     -896.426842     -896.426881     -896.491025  0.001820 -6.999215  0.002744
   scf:   37     -896.426884     -896.426882     -896.491026  0.000154 -6.999240  0.002850
   scf:   38     -896.426916     -896.426899     -896.491027  0.000417 -6.999357  0.002645
   scf:   39     -896.426923     -896.426911     -896.491027  0.000686 -6.999790  0.002304
   scf:   40     -896.426909     -896.426910     -896.491027  0.000183 -6.999877  0.002365
   scf:   41     -896.426862     -896.426887     -896.491026  0.000765 -6.999523  0.002026
   scf:   42     -896.426881     -896.426884     -896.491026  0.000240 -6.999356  0.002151
   scf:   43     -896.426888     -896.426886     -896.491027  0.000202 -6.999283  0.001898
   scf:   44     -896.426947     -896.426917     -896.491027  0.000494 -6.999250  0.000798
   scf:   45     -896.426930     -896.426923     -896.491027  0.000111 -6.999246  0.000558

SCF Convergence by DM+H criterion
max |DM_out - DM_in|         :     0.0001109227
max |H_out - H_in|      (eV) :     0.0005578866
SCF cycle converged after 45 iterations

Using DM_out to compute the final energy and forces
No. of atoms with KB's overlaping orbs in proc 0. Max # of overlaps:       4      36

siesta: E_KS(eV) =             -896.4269

siesta: Atomic forces (eV/Ang):
----------------------------------------
   Tot    0.022940    0.004155    0.004536
----------------------------------------
   Max    8.599999
   Res    4.017615    sqrt( Sum f_i^2 / 3N )
----------------------------------------
   Max    8.599999    constrained

Stress tensor Voigt[x,y,z,yz,xz,xy] (kbar):      -31.72       -1.56       -2.56       -0.76        1.26       -0.44
(Free)E + p*V (eV/cell)     -889.0345
Target enthalpy (eV/cell)     -896.4910

siesta: Stress tensor (static) (eV/Ang**3):
        -0.018065   -0.000362    0.000670
        -0.000362   -0.000535   -0.000289
         0.000670   -0.000289   -0.001024

siesta: Pressure (static):         10.48019877  kBar

siesta: Stress tensor (total) (eV/Ang**3):
        -0.019796   -0.000276    0.000789
        -0.000277   -0.000972   -0.000472
         0.000789   -0.000472   -0.001601

siesta: Pressure (total):         11.94676825  kBar

siesta: Temp_ion =    3625.623 K

                     ====================================
                        Begin MD step =      8
                     ====================================

outcell: Unit cell vectors (Ang):
       10.000000    0.000000    0.000000
        0.000000   10.000000    0.000000
        0.000000    0.000000   10.000000

outcell: Cell vector modules (Ang)   :   10.000000   10.000000   10.000000
outcell: Cell angles (23,13,12) (deg):     90.0000     90.0000     90.0000
outcell: Cell volume (Ang**3)        :   1000.0000
<dSpData1D:S at geom step 8
  <sparsity:sparsity for geom step 8
    nrows_g=36 nrows=36 sparsity=1.0000 nnzs=1296, refcount: 7>
  <dData1D:(new from dSpData1D) n=1296, refcount: 1>
refcount: 1>
new_DM -- step:     8
Re-using DM from previous geometries...
Number of DMs in history: 1
 DM extrapolation coefficients: 
1   1.00000
New DM after history re-use:
<dSpData2D:SpM extrapolated using coords
  <sparsity:sparsity for geom step 8
    nrows_g=36 nrows=36 sparsity=1.0000 nnzs=1296, refcount: 9>
  <dData2D:(temp array for extrapolation) n=1296 m=1, refcount: 1>
refcount: 1>
Note: For starting DM, Qtot, Tr[D*S] =         14.00000000         13.96891758
No. of atoms with KB's overlaping orbs in proc 0. Max # of overlaps:       4      36
New grid distribution:   1
           1       1:   45    1:   45    1:   45

InitMesh: MESH =    90 x    90 x    90 =      729000
InitMesh: (bp) =    45 x    45 x    45 =       91125
InitMesh: Mesh cutoff (required, used) =   200.000   223.865 Ry
ExtMesh (bp) on 0 =   117 x   117 x   117 =     1601613
PhiOnMesh: Number of (b)points on node 0 =                91125
PhiOnMesh: nlist on node 0 =               451501

        iscf     Eharris(eV)        E_KS(eV)     FreeEng(eV)     dDmax    Ef(eV) dHmax(eV)
   scf:    1     -895.288022     -896.544155     -896.568870  0.997461 -6.442689  2.997504
   scf:    2     -845.301205     -880.702331     -880.702331  3.721270 -7.401148 18.551675
   scf:    3     -898.919212     -897.166970     -897.215601  3.320458 -6.740601  0.655097
   scf:    4     -897.195546     -897.183746     -897.234295  0.035133 -6.731688  0.634019
   scf:    5     -896.884838     -897.087971     -897.145291  0.251501 -6.812341  1.669667
   scf:    6     -897.089888     -897.088931     -897.146278  0.000861 -6.812204  1.663429
   scf:    7     -897.127206     -897.108716     -897.164645  0.022497 -6.809769  1.532725
   scf:    8     -897.164668     -897.140302     -897.191677  0.054489 -6.832176  1.233329
   scf:    9     -897.229039     -897.194022     -897.245660  0.117073 -6.830208  0.597878
   scf:   10     -897.216862     -897.213502     -897.269347  0.067447 -6.812688  0.048719
   scf:   11     -897.191722     -897.206907     -897.265395  0.044566 -6.799290  0.378265
   scf:   12     -897.215089     -897.212258     -897.270971  0.031814 -6.811876  0.142967
   scf:   13     -897.211518     -897.212780     -897.271663  0.022562 -6.820099  0.069004
   scf:   14     -897.212886     -897.213105     -897.271758  0.015967 -6.816055  0.058522
   scf:   15     -897.212932     -897.213021     -897.271725  0.002695 -6.815716  0.065391
   scf:   16     -897.212649     -897.212908     -897.271865  0.005858 -6.816627  0.009238
   scf:   17     -897.212980     -897.212944     -897.271869  0.000657 -6.816237  0.009203
   scf:   18     -897.213034     -897.212995     -897.271884  0.004277 -6.815482  0.008341
   scf:   19     -897.213070     -897.213034     -897.271884  0.000743 -6.815686  0.004524
   scf:   20     -897.213130     -897.213082     -897.271883  0.000925 -6.815887  0.003394
   scf:   21     -897.213013     -897.213048     -897.271884  0.001523 -6.815981  0.001736
   scf:   22     -897.212972     -897.213010     -897.271885  0.000503 -6.815968  0.001962
   scf:   23     -897.212996     -897.213004     -897.271887  0.000984 -6.816071  0.001231
   scf:   24     -897.213007     -897.213006     -897.271887  0.000062 -6.816082  0.001187
   scf:   25     -897.213007     -897.213006     -897.271887  0.000184 -6.816087  0.001215
   scf:   26     -897.213011     -897.213008     -897.271888  0.000545 -6.816066  0.001179
   scf:   27     -897.213049     -897.213029     -897.271887  0.001141 -6.816081  0.000843
   scf:   28     -897.213021     -897.213025     -897.271888  0.000193 -6.816104  0.000763

SCF Convergence by DM+H criterion
max |DM_out - DM_in|         :     0.0001926300
max |H_out - H_in|      (eV) :     0.0007629035
SCF cycle converged after 28 iterations

Using DM_out to compute the final energy and forces
No. of atoms with KB's overlaping orbs in proc 0. Max # of overlaps:       4      36

siesta: E_KS(eV) =             -897.2130

siesta: Atomic forces (eV/Ang):
----------------------------------------
   Tot   -0.046421    0.002454    0.003321
----------------------------------------
   Max    4.945180
   Res    2.907296    sqrt( Sum f_i^2 / 3N )
----------------------------------------
   Max    4.945180    constrained

Stress tensor Voigt[x,y,z,yz,xz,xy] (kbar):      -23.52       -1.80       -2.91       -0.31        2.42       -0.21
(Free)E + p*V (eV/cell)     -891.4009
Target enthalpy (eV/cell)     -897.2719

siesta: Stress tensor (static) (eV/Ang**3):
        -0.013704   -0.000137    0.001000
        -0.000137   -0.000455    0.000112
         0.001001    0.000112   -0.000663

siesta: Pressure (static):          7.91564303  kBar

siesta: Stress tensor (total) (eV/Ang**3):
        -0.014677   -0.000129    0.001508
        -0.000129   -0.001122   -0.000196
         0.001509   -0.000196   -0.001814

siesta: Pressure (total):          9.40648554  kBar

siesta: Temp_ion =    5470.544 K

                     ====================================
                        Begin MD step =      9
                     ====================================

outcell: Unit cell vectors (Ang):
       10.000000    0.000000    0.000000
        0.000000   10.000000    0.000000
        0.000000    0.000000   10.000000

outcell: Cell vector modules (Ang)   :   10.000000   10.000000   10.000000
outcell: Cell angles (23,13,12) (deg):     90.0000     90.0000     90.0000
outcell: Cell volume (Ang**3)        :   1000.0000
<dSpData1D:S at geom step 9
  <sparsity:sparsity for geom step 9
    nrows_g=36 nrows=36 sparsity=1.0000 nnzs=1296, refcount: 7>
  <dData1D:(new from dSpData1D) n=1296, refcount: 1>
refcount: 1>
new_DM -- step:     9
Re-using DM from previous geometries...
Number of DMs in history: 1
 DM extrapolation coefficients: 
1   1.00000
New DM after history re-use:
<dSpData2D:SpM extrapolated using coords
  <sparsity:sparsity for geom step 9
    nrows_g=36 nrows=36 sparsity=1.0000 nnzs=1296, refcount: 9>
  <dData2D:(temp array for extrapolation) n=1296 m=1, refcount: 1>
refcount: 1>
Note: For starting DM, Qtot, Tr[D*S] =         14.00000000         13.97533437
No. of atoms with KB's overlaping orbs in proc 0. Max # of overlaps:       4      36
New grid distribution:   1
           1       1:   45    1:   45    1:   45

InitMesh: MESH =    90 x    90 x    90 =      729000
InitMesh: (bp) =    45 x    45 x    45 =       91125
InitMesh: Mesh cutoff (required, used) =   200.000   223.865 Ry
ExtMesh (bp) on 0 =   117 x   117 x   117 =     1601613
PhiOnMesh: Number of (b)points on node 0 =                91125
PhiOnMesh: nlist on node 0 =               451286

        iscf     Eharris(eV)        E_KS(eV)     FreeEng(eV)     dDmax    Ef(eV) dHmax(eV)
   scf:    1     -896.103529     -897.186351     -897.221472  0.835675 -6.166647  3.290559
   scf:    2     -839.558716     -879.198240     -879.198240  3.700246 -7.415472 19.754914
   scf:    3     -897.914523     -897.784924     -897.839046  3.381628 -6.521386  1.081959
   scf:    4     -897.597629     -897.767902     -897.817416  0.252215 -6.658929  1.238617
   scf:    5     -897.643122     -897.709303     -897.755763  0.037617 -6.674577  1.630821
   scf:    6     -897.776108     -897.845620     -897.902059  0.219599 -6.636722  0.194192
   scf:    7     -897.818747     -897.833380     -897.889315  0.042376 -6.651438  0.190873
   scf:    8     -897.821811     -897.852497     -897.905234  0.204048 -6.592988  0.426225
   scf:    9     -897.844962     -897.849421     -897.902489  0.019668 -6.588738  0.556956
   scf:   10     -897.859816     -897.860433     -897.916085  0.073500 -6.626979  0.103743
   scf:   11     -897.862800     -897.862230     -897.917153  0.019748 -6.629986  0.023407
   scf:   12     -897.862188     -897.862219     -897.917175  0.002073 -6.629095  0.021482
   scf:   13     -897.863042     -897.862650     -897.917181  0.008793 -6.629924  0.007654
   scf:   14     -897.862555     -897.862603     -897.917189  0.001097 -6.629672  0.003962
   scf:   15     -897.862137     -897.862375     -897.917204  0.002457 -6.630149  0.002603
   scf:   16     -897.862350     -897.862363     -897.917204  0.000194 -6.630134  0.002192
   scf:   17     -897.862360     -897.862361     -897.917204  0.000670 -6.630278  0.001846
   scf:   18     -897.862362     -897.862361     -897.917204  0.000134 -6.630325  0.001671
   scf:   19     -897.862264     -897.862313     -897.917205  0.000951 -6.631033  0.000900
   scf:   20     -897.862311     -897.862312     -897.917205  0.000035 -6.631050  0.000852

SCF Convergence by DM+H criterion
max |DM_out - DM_in|         :     0.0000349831
max |H_out - H_in|      (eV) :     0.0008516256
SCF cycle converged after 20 iterations

Using DM_out to compute the final energy and forces
No. of atoms with KB's overlaping orbs in proc 0. Max # of overlaps:       4      36

siesta: E_KS(eV) =             -897.8623

siesta: Atomic forces (eV/Ang):
----------------------------------------
   Tot   -0.012205    0.001259    0.000175
----------------------------------------
   Max    3.399477
   Res    2.125457    sqrt( Sum f_i^2 / 3N )
----------------------------------------
   Max    3.399477    constrained

Stress tensor Voigt[x,y,z,yz,xz,xy] (kbar):      -18.42       -1.75       -1.91        0.85        3.65       -0.10
(Free)E + p*V (eV/cell)     -893.3239
Target enthalpy (eV/cell)     -897.9172

siesta: Stress tensor (static) (eV/Ang**3):
        -0.009996    0.000129    0.001155
         0.000129   -0.000157    0.000853
         0.001155    0.000854    0.000585

siesta: Pressure (static):          5.10985323  kBar

siesta: Stress tensor (total) (eV/Ang**3):
        -0.011498   -0.000062    0.002278
        -0.000062   -0.001089    0.000529
         0.002279    0.000529   -0.001192

siesta: Pressure (total):          7.35932045  kBar

siesta: Temp_ion =    7109.007 K

                     ====================================
                        Begin MD step =     10
                     ====================================

outcell: Unit cell vectors (Ang):
       10.000000    0.000000    0.000000
        0.000000   10.000000    0.000000
        0.000000    0.000000   10.000000

outcell: Cell vector modules (Ang)   :   10.000000   10.000000   10.000000
outcell: Cell angles (23,13,12) (deg):     90.0000     90.0000     90.0000
outcell: Cell volume (Ang**3)        :   1000.0000
<dSpData1D:S at geom step 10
  <sparsity:sparsity for geom step 10
    nrows_g=36 nrows=36 sparsity=1.0000 nnzs=1296, refcount: 7>
  <dData1D:(new from dSpData1D) n=1296, refcount: 1>
refcount: 1>
new_DM -- step:    10
Re-using DM from previous geometries...
Number of DMs in history: 1
 DM extrapolation coefficients: 
1   1.00000
New DM after history re-use:
<dSpData2D:SpM extrapolated using coords
  <sparsity:sparsity for geom step 10
    nrows_g=36 nrows=36 sparsity=1.0000 nnzs=1296, refcount: 9>
  <dData2D:(temp array for extrapolation) n=1296 m=1, refcount: 1>
refcount: 1>
Note: For starting DM, Qtot, Tr[D*S] =         14.00000000         13.98245115
No. of atoms with KB's overlaping orbs in proc 0. Max # of overlaps:       4      36
New grid distribution:   1
           1       1:   45    1:   45    1:   45

InitMesh: MESH =    90 x    90 x    90 =      729000
InitMesh: (bp) =    45 x    45 x    45 =       91125
InitMesh: Mesh cutoff (required, used) =   200.000   223.865 Ry
ExtMesh (bp) on 0 =   117 x   117 x   117 =     1601613
PhiOnMesh: Number of (b)points on node 0 =                91125
PhiOnMesh: nlist on node 0 =               451199

        iscf     Eharris(eV)        E_KS(eV)     FreeEng(eV)     dDmax    Ef(eV) dHmax(eV)
   scf:    1     -897.010220     -897.701833     -897.762869  1.028578 -6.052644  2.866406
   scf:    2     -842.634680     -880.176246     -880.176246  3.299046 -7.324975 20.054260
   scf:    3     -897.951100     -898.035342     -898.084919  2.963021 -6.326059  1.400065
   scf:    4     -897.987338     -898.012375     -898.063409  0.038078 -6.298511  1.517019
   scf:    5     -897.591743     -897.895481     -897.959698  0.306046 -6.330671  1.972665
   scf:    6     -897.718653     -898.061310     -898.105502  0.471501 -6.586302  1.348071
   scf:    7     -898.131691     -898.102631     -898.152434  0.061117 -6.569820  0.872059
   scf:    8     -898.113414     -898.109725     -898.159585  0.059534 -6.548577  0.745923
   scf:    9     -898.136266     -898.131735     -898.185448  0.129766 -6.488777  0.163364
   scf:   10     -898.115189     -898.127553     -898.176584  0.048657 -6.500346  0.481571
   scf:   11     -898.128042     -898.135153     -898.189689  0.084692 -6.466560  0.098479
   scf:   12     -898.135482     -898.135331     -898.189854  0.004408 -6.469213  0.073742
   scf:   13     -898.134125     -898.134854     -898.189983  0.006742 -6.475626  0.023894
   scf:   14     -898.134754     -898.134808     -898.189991  0.002983 -6.474321  0.009318
   scf:   15     -898.135910     -898.135382     -898.190045  0.004686 -6.473828  0.004027
   scf:   16     -898.135269     -898.135326     -898.190046  0.000668 -6.473814  0.002541
   scf:   17     -898.135337     -898.135331     -898.190046  0.000166 -6.473862  0.002376
   scf:   18     -898.135348     -898.135340     -898.190046  0.000390 -6.474042  0.001964
   scf:   19     -898.135294     -898.135317     -898.190046  0.000458 -6.474247  0.001699
   scf:   20     -898.135400     -898.135359     -898.190047  0.000563 -6.474357  0.001083
   scf:   21     -898.135364     -898.135361     -898.190047  0.000045 -6.474390  0.001071
   scf:   22     -898.135306     -898.135334     -898.190047  0.000595 -6.474827  0.001256
   scf:   23     -898.135340     -898.135337     -898.190047  0.000055 -6.474852  0.001196
   scf:   24     -898.135358     -898.135348     -898.190047  0.000218 -6.474909  0.000444

SCF Convergence by DM+H criterion
max |DM_out - DM_in|         :     0.0002184526
max |H_out - H_in|      (eV) :     0.0004436421
SCF cycle converged after 24 iterations

Using DM_out to compute the final energy and forces
No. of atoms with KB's overlaping orbs in proc 0. Max # of overlaps:       4      36

siesta: E_KS(eV) =             -898.1353

siesta: Atomic forces (eV/Ang):
----------------------------------------
   Tot   -0.022274    0.000604   -0.000041
----------------------------------------
   Max    2.862346
   Res    1.874070    sqrt( Sum f_i^2 / 3N )
----------------------------------------
   Max    2.862346    constrained

Stress tensor Voigt[x,y,z,yz,xz,xy] (kbar):      -15.96       -1.56        0.03        2.32        4.39       -0.33
(Free)E + p*V (eV/cell)     -894.5505
Target enthalpy (eV/cell)     -898.1900

siesta: Stress tensor (static) (eV/Ang**3):
        -0.007546    0.000268    0.001064
         0.000268    0.000143    0.001497
         0.001064    0.001498    0.001958

siesta: Pressure (static):          2.90808071  kBar

siesta: Stress tensor (total) (eV/Ang**3):
        -0.009964   -0.000205    0.002739
        -0.000205   -0.000972    0.001446
         0.002739    0.001447    0.000017

siesta: Pressure (total):          5.83127757  kBar

siesta: Temp_ion =    7861.660 K

                     ====================================
                        Begin MD step =     11
                     ====================================

outcell: Unit cell vectors (Ang):
       10.000000    0.000000    0.000000
        0.000000   10.000000    0.000000
        0.000000    0.000000   10.000000

outcell: Cell vector modules (Ang)   :   10.000000   10.000000   10.000000
outcell: Cell angles (23,13,12) (deg):     90.0000     90.0000     90.0000
outcell: Cell volume (Ang**3)        :   1000.0000
<dSpData1D:S at geom step 11
  <sparsity:sparsity for geom step 11
    nrows_g=36 nrows=36 sparsity=1.0000 nnzs=1296, refcount: 7>
  <dData1D:(new from dSpData1D) n=1296, refcount: 1>
refcount: 1>
new_DM -- step:    11
Re-using DM from previous geometries...
Number of DMs in history: 1
 DM extrapolation coefficients: 
1   1.00000
New DM after history re-use:
<dSpData2D:SpM extrapolated using coords
  <sparsity:sparsity for geom step 11
    nrows_g=36 nrows=36 sparsity=1.0000 nnzs=1296, refcount: 9>
  <dData2D:(temp array for extrapolation) n=1296 m=1, refcount: 1>
refcount: 1>
Note: For starting DM, Qtot, Tr[D*S] =         14.00000000         13.98363700
No. of atoms with KB's overlaping orbs in proc 0. Max # of overlaps:       4      36
New grid distribution:   1
           1       1:   45    1:   45    1:   45

InitMesh: MESH =    90 x    90 x    90 =      729000
InitMesh: (bp) =    45 x    45 x    45 =       91125
InitMesh: Mesh cutoff (required, used) =   200.000   223.865 Ry
ExtMesh (bp) on 0 =   117 x   117 x   117 =     1601613
PhiOnMesh: Number of (b)points on node 0 =                91125
PhiOnMesh: nlist on node 0 =               451067

        iscf     Eharris(eV)        E_KS(eV)     FreeEng(eV)     dDmax    Ef(eV) dHmax(eV)
   scf:    1     -896.788993     -897.767041     -897.834808  1.582222 -6.014402  2.834394
   scf:    2     -864.627487     -887.495665     -887.495665  2.658287 -7.157574 17.048579
   scf:    3     -898.568651     -898.124717     -898.159718  2.286491 -6.219364  1.638976
   scf:    4     -898.124547     -898.124648     -898.159188  0.004596 -6.222420  1.631050
   scf:    5     -898.242558     -898.225510     -898.271356  0.199705 -6.420949  0.489037
   scf:    6     -898.240293     -898.233711     -898.282542  0.024465 -6.409168  0.312691
   scf:    7     -898.081118     -898.173305     -898.210688  0.110000 -6.463734  1.204813
   scf:    8     -897.828368     -898.146635     -898.215212  0.361404 -6.383203  0.602939
   scf:    9     -898.269196     -898.230719     -898.292906  0.162233 -6.384259  0.084141
   scf:   10     -898.216631     -898.236969     -898.287710  0.132520 -6.328966  0.277892
   scf:   11     -898.242250     -898.241763     -898.296996  0.056836 -6.360992  0.102911
   scf:   12     -898.241470     -898.241812     -898.298372  0.013223 -6.358441  0.044654
   scf:   13     -898.238960     -898.240702     -898.298902  0.018093 -6.358459  0.022217
   scf:   14     -898.239439     -898.240120     -898.298775  0.007864 -6.360856  0.030094
   scf:   15     -898.241527     -898.240879     -898.298915  0.007296 -6.361597  0.004009
   scf:   16     -898.240636     -898.240763     -898.298928  0.002836 -6.361937  0.003380
   scf:   17     -898.240798     -898.240781     -898.298931  0.000358 -6.361952  0.003431
   scf:   18     -898.240926     -898.240854     -898.298935  0.001255 -6.362038  0.003180
   scf:   19     -898.240871     -898.240863     -898.298936  0.000185 -6.362056  0.003163
   scf:   20     -898.240881     -898.240872     -898.298936  0.000517 -6.361965  0.002014
   scf:   21     -898.240868     -898.240870     -898.298936  0.000044 -6.361982  0.001955
   scf:   22     -898.240840     -898.240855     -898.298936  0.000415 -6.362579  0.000848
   scf:   23     -898.240900     -898.240878     -898.298937  0.000262 -6.362618  0.000780

SCF Convergence by DM+H criterion
max |DM_out - DM_in|         :     0.0002623122
max |H_out - H_in|      (eV) :     0.0007799700
SCF cycle converged after 23 iterations

Using DM_out to compute the final energy and forces
No. of atoms with KB's overlaping orbs in proc 0. Max # of overlaps:       4      36

siesta: E_KS(eV) =             -898.2409

siesta: Atomic forces (eV/Ang):
----------------------------------------
   Tot   -0.009249    0.001141    0.002654
----------------------------------------
   Max    3.423153
   Res    1.852906    sqrt( Sum f_i^2 / 3N )
----------------------------------------
   Max    3.423153    constrained

Stress tensor Voigt[x,y,z,yz,xz,xy] (kbar):      -15.09       -1.34        2.27        3.73        4.38       -0.84
(Free)E + p*V (eV/cell)     -895.3526
Target enthalpy (eV/cell)     -898.2989

siesta: Stress tensor (static) (eV/Ang**3):
        -0.006189    0.000280    0.000805
         0.000280    0.000379    0.001918
         0.000805    0.001918    0.003025

siesta: Pressure (static):          1.48791205  kBar

siesta: Stress tensor (total) (eV/Ang**3):
        -0.009417   -0.000523    0.002736
        -0.000523   -0.000837    0.002325
         0.002736    0.002325    0.001415

siesta: Pressure (total):          4.72059723  kBar

siesta: Temp_ion =    8174.973 K

                     ====================================
                        Begin MD step =     12
                     ====================================

outcell: Unit cell vectors (Ang):
       10.000000    0.000000    0.000000
        0.000000   10.000000    0.000000
        0.000000    0.000000   10.000000

outcell: Cell vector modules (Ang)   :   10.000000   10.000000   10.000000
[...]
   scf:    7     -898.961464     -898.961331     -899.030645  0.097740 -7.034100  0.052593
   scf:    8     -898.961348     -898.961350     -899.030663  0.011842 -7.048615  0.031076
   scf:    9     -898.961390     -898.961386     -899.030701  0.004608 -7.057250  0.000826
   scf:   10     -898.961386     -898.961386     -899.030701  0.000055 -7.057329  0.000788

SCF Convergence by DM+H criterion
max |DM_out - DM_in|         :     0.0000547975
max |H_out - H_in|      (eV) :     0.0007883766
SCF cycle converged after 10 iterations

Using DM_out to compute the final energy and forces
No. of atoms with KB's overlaping orbs in proc 0. Max # of overlaps:       4      26

siesta: E_KS(eV) =             -898.9614

siesta: Atomic forces (eV/Ang):
----------------------------------------
   Tot   -0.002392    0.002791   -0.001853
----------------------------------------
   Max    3.751945
   Res    2.172427    sqrt( Sum f_i^2 / 3N )
----------------------------------------
   Max    3.751945    constrained

Stress tensor Voigt[x,y,z,yz,xz,xy] (kbar):        1.64       -0.93       -0.28        2.07        5.29        2.46
(Free)E + p*V (eV/cell)     -899.1213
Target enthalpy (eV/cell)     -899.0307

siesta: Stress tensor (static) (eV/Ang**3):
         0.005712    0.002317    0.001985
         0.002317    0.000952    0.000924
         0.001985    0.000924    0.001887

siesta: Pressure (static):         -4.56680913  kBar

siesta: Stress tensor (total) (eV/Ang**3):
         0.001025    0.001533    0.003302
         0.001533   -0.000579    0.001294
         0.003302    0.001294   -0.000174

siesta: Pressure (total):         -0.14507811  kBar

siesta: Temp_ion =   10075.166 K

                     ====================================
                        Begin MD step =     98
                     ====================================

outcell: Unit cell vectors (Ang):
       10.000000    0.000000    0.000000
        0.000000   10.000000    0.000000
        0.000000    0.000000   10.000000

outcell: Cell vector modules (Ang)   :   10.000000   10.000000   10.000000
outcell: Cell angles (23,13,12) (deg):     90.0000     90.0000     90.0000
outcell: Cell volume (Ang**3)        :   1000.0000
<dSpData1D:S at geom step 98
  <sparsity:sparsity for geom step 98
    nrows_g=36 nrows=36 sparsity=.5988 nnzs=776, refcount: 7>
  <dData1D:(new from dSpData1D) n=776, refcount: 1>
refcount: 1>
new_DM -- step:    98
Re-using DM from previous geometries...
Number of DMs in history: 1
 DM extrapolation coefficients: 
1   1.00000
New DM after history re-use:
<dSpData2D:SpM extrapolated using coords
  <sparsity:sparsity for geom step 98
    nrows_g=36 nrows=36 sparsity=.5988 nnzs=776, refcount: 9>
  <dData2D:(temp array for extrapolation) n=776 m=1, refcount: 1>
refcount: 1>
Note: For starting DM, Qtot, Tr[D*S] =         14.00000000         14.01439286
No. of atoms with KB's overlaping orbs in proc 0. Max # of overlaps:       4      26
New grid distribution:   1
           1       1:   45    1:   45    1:   45

InitMesh: MESH =    90 x    90 x    90 =      729000
InitMesh: (bp) =    45 x    45 x    45 =       91125
InitMesh: Mesh cutoff (required, used) =   200.000   223.865 Ry
ExtMesh (bp) on 0 =   117 x   117 x   117 =     1601613
PhiOnMesh: Number of (b)points on node 0 =                91125
PhiOnMesh: nlist on node 0 =               451083

        iscf     Eharris(eV)        E_KS(eV)     FreeEng(eV)     dDmax    Ef(eV) dHmax(eV)
   scf:    1     -899.341061     -899.068618     -899.137930  0.189347 -7.310607  0.359007
   scf:    2     -899.056550     -899.066168     -899.135189  0.126389 -6.998742  0.287013
   scf:    3     -899.072824     -899.070244     -899.139501  0.048842 -7.116624  0.072983
   scf:    4     -899.070169     -899.070832     -899.140139  0.021855 -7.113694  0.061264
   scf:    5     -899.070530     -899.070877     -899.140184  0.018524 -7.125852  0.039796
   scf:    6     -899.070524     -899.070864     -899.140173  0.011600 -7.095632  0.046994
   scf:    7     -899.070921     -899.070967     -899.140281  0.016144 -7.113761  0.012553
   scf:    8     -899.070957     -899.070963     -899.140276  0.002800 -7.111015  0.008801
   scf:    9     -899.070977     -899.070977     -899.140291  0.002501 -7.108128  0.000438
   scf:   10     -899.070977     -899.070977     -899.140292  0.000095 -7.108106  0.000341

SCF Convergence by DM+H criterion
max |DM_out - DM_in|         :     0.0000953603
max |H_out - H_in|      (eV) :     0.0003410701
SCF cycle converged after 10 iterations

Using DM_out to compute the final energy and forces
No. of atoms with KB's overlaping orbs in proc 0. Max # of overlaps:       4      26

siesta: E_KS(eV) =             -899.0710

siesta: Atomic forces (eV/Ang):
----------------------------------------
   Tot   -0.002302    0.002130    0.000930
----------------------------------------
   Max    3.332746
   Res    2.229277    sqrt( Sum f_i^2 / 3N )
----------------------------------------
   Max    3.332746    constrained

Stress tensor Voigt[x,y,z,yz,xz,xy] (kbar):        0.86       -0.50        1.53        3.03        5.82        2.70
(Free)E + p*V (eV/cell)     -899.5345
Target enthalpy (eV/cell)     -899.1403

siesta: Stress tensor (static) (eV/Ang**3):
         0.005475    0.002344    0.001909
         0.002344    0.001073    0.001159
         0.001909    0.001159    0.002392

siesta: Pressure (static):         -4.77449850  kBar

siesta: Stress tensor (total) (eV/Ang**3):
         0.000537    0.001688    0.003633
         0.001688   -0.000311    0.001891
         0.003633    0.001891    0.000957

siesta: Pressure (total):         -0.63162796  kBar

siesta: Temp_ion =   10355.859 K

                     ====================================
                        Begin MD step =     99
                     ====================================

outcell: Unit cell vectors (Ang):
       10.000000    0.000000    0.000000
        0.000000   10.000000    0.000000
        0.000000    0.000000   10.000000

outcell: Cell vector modules (Ang)   :   10.000000   10.000000   10.000000
outcell: Cell angles (23,13,12) (deg):     90.0000     90.0000     90.0000
outcell: Cell volume (Ang**3)        :   1000.0000
<dSpData1D:S at geom step 99
  <sparsity:sparsity for geom step 99
    nrows_g=36 nrows=36 sparsity=.5988 nnzs=776, refcount: 7>
  <dData1D:(new from dSpData1D) n=776, refcount: 1>
refcount: 1>
new_DM -- step:    99
Re-using DM from previous geometries...
Number of DMs in history: 1
 DM extrapolation coefficients: 
1   1.00000
New DM after history re-use:
<dSpData2D:SpM extrapolated using coords
  <sparsity:sparsity for geom step 99
    nrows_g=36 nrows=36 sparsity=.5988 nnzs=776, refcount: 9>
  <dData2D:(temp array for extrapolation) n=776 m=1, refcount: 1>
refcount: 1>
Note: For starting DM, Qtot, Tr[D*S] =         14.00000000         14.07178928
No. of atoms with KB's overlaping orbs in proc 0. Max # of overlaps:       4      26
New grid distribution:   1
           1       1:   45    1:   45    1:   45

InitMesh: MESH =    90 x    90 x    90 =      729000
InitMesh: (bp) =    45 x    45 x    45 =       91125
InitMesh: Mesh cutoff (required, used) =   200.000   223.865 Ry
ExtMesh (bp) on 0 =   117 x   117 x   117 =     1601613
PhiOnMesh: Number of (b)points on node 0 =                91125
PhiOnMesh: nlist on node 0 =               451183

        iscf     Eharris(eV)        E_KS(eV)     FreeEng(eV)     dDmax    Ef(eV) dHmax(eV)
   scf:    1     -900.033438     -899.513281     -899.582626  0.440568 -7.922581  1.342118
   scf:    2     -899.470325     -899.515315     -899.584187  0.666925 -6.740884  1.027813
   scf:    3     -899.552886     -899.537960     -899.607186  0.264317 -7.185633  0.273500
   scf:    4     -899.525156     -899.535733     -899.604756  0.074509 -7.135200  0.182147
   scf:    5     -899.519684     -899.528426     -899.597121  0.091771 -6.998537  0.452724
   scf:    6     -899.541798     -899.537912     -899.607217  0.063573 -7.043652  0.278049
   scf:    7     -899.540662     -899.539823     -899.609135  0.107774 -7.164177  0.035911
   scf:    8     -899.539712     -899.539834     -899.609146  0.010171 -7.155755  0.019008
   scf:    9     -899.539849     -899.539868     -899.609182  0.005979 -7.147078  0.003574
   scf:   10     -899.539870     -899.539870     -899.609185  0.001128 -7.148147  0.000763
   scf:   11     -899.539870     -899.539870     -899.609185  0.000026 -7.148145  0.000690

SCF Convergence by DM+H criterion
max |DM_out - DM_in|         :     0.0000261710
max |H_out - H_in|      (eV) :     0.0006898505
SCF cycle converged after 11 iterations

Using DM_out to compute the final energy and forces
No. of atoms with KB's overlaping orbs in proc 0. Max # of overlaps:       4      26

siesta: E_KS(eV) =             -899.5399

siesta: Atomic forces (eV/Ang):
----------------------------------------
   Tot    0.003036    0.000660    0.001006
----------------------------------------
   Max    3.329189
   Res    2.197855    sqrt( Sum f_i^2 / 3N )
----------------------------------------
   Max    3.329189    constrained

Stress tensor Voigt[x,y,z,yz,xz,xy] (kbar):       -1.16       -0.42        2.60        3.53        5.03        2.07
(Free)E + p*V (eV/cell)     -899.8199
Target enthalpy (eV/cell)     -899.6092

siesta: Stress tensor (static) (eV/Ang**3):
         0.004918    0.002093    0.001451
         0.002093    0.001069    0.001236
         0.001451    0.001236    0.002618

siesta: Pressure (static):         -4.59593645  kBar

siesta: Stress tensor (total) (eV/Ang**3):
        -0.000726    0.001292    0.003138
         0.001292   -0.000261    0.002202
         0.003138    0.002202    0.001620

siesta: Pressure (total):         -0.33764603  kBar

siesta: Temp_ion =   11542.185 K

                     ====================================
                        Begin MD step =    100
                     ====================================

outcell: Unit cell vectors (Ang):
       10.000000    0.000000    0.000000
        0.000000   10.000000    0.000000
        0.000000    0.000000   10.000000

outcell: Cell vector modules (Ang)   :   10.000000   10.000000   10.000000
outcell: Cell angles (23,13,12) (deg):     90.0000     90.0000     90.0000
outcell: Cell volume (Ang**3)        :   1000.0000
<dSpData1D:S at geom step 100
  <sparsity:sparsity for geom step 100
    nrows_g=36 nrows=36 sparsity=.5988 nnzs=776, refcount: 7>
  <dData1D:(new from dSpData1D) n=776, refcount: 1>
refcount: 1>
new_DM -- step:   100
Re-using DM from previous geometries...
Number of DMs in history: 1
 DM extrapolation coefficients: 
1   1.00000
New DM after history re-use:
<dSpData2D:SpM extrapolated using coords
  <sparsity:sparsity for geom step 100
    nrows_g=36 nrows=36 sparsity=.5988 nnzs=776, refcount: 9>
  <dData2D:(temp array for extrapolation) n=776 m=1, refcount: 1>
refcount: 1>
Note: For starting DM, Qtot, Tr[D*S] =         14.00000000         14.12294900
No. of atoms with KB's overlaping orbs in proc 0. Max # of overlaps:       4      26
New grid distribution:   1
           1       1:   45    1:   45    1:   45

InitMesh: MESH =    90 x    90 x    90 =      729000
InitMesh: (bp) =    45 x    45 x    45 =       91125
InitMesh: Mesh cutoff (required, used) =   200.000   223.865 Ry
ExtMesh (bp) on 0 =   117 x   117 x   117 =     1601613
PhiOnMesh: Number of (b)points on node 0 =                91125
PhiOnMesh: nlist on node 0 =               451116

        iscf     Eharris(eV)        E_KS(eV)     FreeEng(eV)     dDmax    Ef(eV) dHmax(eV)
   scf:    1     -899.670607     -899.769807     -899.848079  0.636142 -8.452428  3.342604
   scf:    2     -899.686988     -899.989318     -900.058430  1.777900 -5.466574  3.492700
   scf:    3     -900.343040     -900.197063     -900.266350  0.937152 -6.892363  0.700418
   scf:    4     -900.212851     -900.207860     -900.277174  0.266268 -7.345322  0.267091
   scf:    5     -900.207422     -900.207720     -900.277033  0.020690 -7.366369  0.272266
   scf:    6     -900.202928     -900.206153     -900.275466  0.142484 -7.080516  0.255720
   scf:    7     -900.208691     -900.207723     -900.277026  0.068622 -7.161768  0.082270
   scf:    8     -900.207685     -900.207949     -900.277262  0.074926 -7.219950  0.102986
   scf:    9     -900.207914     -900.207933     -900.277245  0.000868 -7.219403  0.106679
   scf:   10     -900.208237     -900.208150     -900.277465  0.032408 -7.175974  0.002018
   scf:   11     -900.208150     -900.208150     -900.277465  0.000462 -7.176554  0.000247
   scf:   12     -900.208150     -900.208150     -900.277465  0.000078 -7.176535  0.000206

SCF Convergence by DM+H criterion
max |DM_out - DM_in|         :     0.0000780493
max |H_out - H_in|      (eV) :     0.0002057624
SCF cycle converged after 12 iterations

Using DM_out to compute the final energy and forces
No. of atoms with KB's overlaping orbs in proc 0. Max # of overlaps:       4      26

siesta: E_KS(eV) =             -900.2082

siesta: Atomic forces (eV/Ang):
----------------------------------------
   Tot    0.000847    0.003332    0.001720
----------------------------------------
   Max    2.764324
   Res    1.798035    sqrt( Sum f_i^2 / 3N )
----------------------------------------
   Max    2.764324    constrained

Stress tensor Voigt[x,y,z,yz,xz,xy] (kbar):       -3.92       -0.97        1.76        2.98        2.62        0.47
(Free)E + p*V (eV/cell)     -899.6252
Target enthalpy (eV/cell)     -900.2775

siesta: Stress tensor (static) (eV/Ang**3):
         0.004149    0.001494    0.000423
         0.001494    0.000795    0.000854
         0.000423    0.000854    0.001986

siesta: Pressure (static):         -3.70098937  kBar

siesta: Stress tensor (total) (eV/Ang**3):
        -0.002449    0.000294    0.001632
         0.000294   -0.000604    0.001857
         0.001632    0.001857    0.001096

siesta: Pressure (total):          1.04511369  kBar

siesta: Temp_ion =   13157.806 K

coxmol: Writing XMOL coordinates into file xoc.xyz                                                             

siesta: Program's energy decomposition (eV):
siesta: Ebs     =      -209.169287
siesta: Eions   =      1592.294315
siesta: Ena     =       380.477400
siesta: Ekin    =       627.748508
siesta: Enl     =       -90.023922
siesta: Eso     =         0.000000
siesta: Edftu   =         0.000000
siesta: DEna    =       -23.576050
siesta: DUscf   =         1.264879
siesta: DUext   =         0.000000
siesta: Exc     =      -203.804650
siesta: eta*DQ  =         0.000000
siesta: Emadel  =         0.000000
siesta: Emeta   =         0.000000
siesta: Emolmec =         0.000000
siesta: Ekinion =         5.102137
siesta: Eharris =      -895.106013
siesta: Etot    =      -895.106013
siesta: FreeEng =      -895.175328

siesta: Final energy (eV):
siesta:  Band Struct. =    -209.169287
siesta:       Kinetic =     627.748508
siesta:       Hartree =     818.727577
siesta:       Edftu   =       0.000000
siesta:       Eso     =       0.000000
siesta:    Ext. field =       0.000000
siesta:   Exch.-corr. =    -203.804650
siesta:  Ion-electron =   -2214.758817
siesta:       Ion-ion =      71.879232
siesta:       Ekinion =       5.102137
siesta:         Total =    -895.106013
siesta:         Fermi =      -7.176535

siesta: Atomic forces (eV/Ang):
siesta:      1    2.764324    0.734941   -0.441808
siesta:      2   -2.763364   -0.731438    0.443614
siesta:      3    1.410380    1.415687    2.651644
siesta:      4   -1.410492   -1.415857   -2.651730
siesta: ----------------------------------------
siesta:    Tot    0.000847    0.003332    0.001720

siesta: Stress tensor (static) (eV/Ang**3):
siesta:     0.004149    0.001494    0.000423
siesta:     0.001494    0.000795    0.000854
siesta:     0.000423    0.000854    0.001986

siesta: Cell volume =       1000.000000 Ang**3

siesta: Pressure (static):
siesta:                Solid            Molecule  Units
siesta:          -0.00002516          0.00000000  Ry/Bohr**3
siesta:          -0.00230995          0.00000045  eV/Ang**3
siesta:          -3.70098937          0.00072344  kBar
(Free)E+ p_basis*V_orbitals  =        -898.068874
(Free)Eharris+ p_basis*V_orbitals  =        -898.068874

siesta: Electric dipole (a.u.)  =   -0.281585    0.003409   -0.007793
siesta: Electric dipole (Debye) =   -0.715717    0.008664   -0.019807

cite: Please see "xoc.bib" for an exhaustive BiBTeX file.
cite: Please clearly indicate Siesta version in published work: 4.1.5
cite: This calculation has made use of the following articles
cite: which are encouraged to be cited in a published work.
        Primary SIESTA paper
          DOI: www.doi.org/10.1088/0953-8984/14/11/302


timer: Elapsed wall time (sec) =     436.902
timer: CPU execution times (sec):

Routine            Calls   Time/call    Tot.time        %
siesta                 1    1942.645    1942.645   100.00
Setup                  1       1.063       1.063     0.05
bands                  1       0.000       0.000     0.00
KSV_init               1       0.000       0.000     0.00
IterGeom             100      19.416    1941.582    99.95
state_init           100       0.002       0.185     0.01
hsparse              100       0.000       0.015     0.00
overlap              100       0.001       0.145     0.01
Setup_H0             100       0.303      30.313     1.56
naefs                200       0.000       0.005     0.00
MolMec               200       0.000       0.000     0.00
kinefsm              200       0.001       0.162     0.01
nlefsm               200       0.004       0.887     0.05
DHSCF_Init           100       0.293      29.346     1.51
DHSCF1               100       0.019       1.930     0.10
INITMESH             100       0.000       0.001     0.00
DHSCF2               100       0.274      27.415     1.41
REMESH               100       0.061       6.084     0.31
REORD               4958       0.004      18.906     0.97
PHION                100       0.160      16.041     0.83
COMM_BSC            7216       0.004      25.748     1.33
POISON              1829       0.323     591.303    30.44
fft                 3658       0.126     460.732    23.72
IterSCF             1529       1.224    1871.324    96.33
setup_H             1629       1.147    1868.501    96.18
DHSCF               1729       1.104    1907.961    98.21
DHSCF3              1729       1.092    1887.967    97.19
rhoofd              1729       0.332     573.873    29.54
XC                  1729       0.313     540.937    27.85
GXC-CellXC          1729       0.298     515.984    26.56
cellXC              1729       0.298     515.911    26.56
vmat                1729       0.016      26.983     1.39
compute_dm          1529       0.002       2.551     0.13
diagon              1529       0.002       2.481     0.13
r-eigvec            1529       0.001       1.513     0.08
r-buildHS           1529       0.000       0.004     0.00
rdiag               1529       0.001       1.445     0.07
rdiag1              1529       0.000       0.017     0.00
rdiag2              1529       0.000       0.029     0.00
rdiag3              1529       0.000       0.177     0.01
rdiag4              1529       0.001       1.099     0.06
r-buildD            1529       0.000       0.718     0.04
MIXER               1429       0.000       0.047     0.00
PostSCF              100       0.397      39.702     2.04
DHSCF4               100       0.200      19.982     1.03
dfscf                100       0.161      16.119     0.83
overfsm              100       0.000       0.024     0.00
state_analysis       100       0.000       0.018     0.00
siesta_move          100       0.000       0.028     0.00
Analysis               1       0.000       0.000     0.00
siesta_analysis        1       0.000       0.000     0.00
optical                1       0.000       0.000     0.00
  
>> End of run:  20-MAR-2024  18:22:07
Job completed
